[Molden Format]
[Title]
 Molden file created by orca_2mkl for BaseName=/data01/nikolayandreadi/sCC/H2C2O4.inp

[Atoms] AU
O    1   8         -0.1512574592         2.6543754681        -0.3778450713 
C    2   6          0.4754002932         0.2078264110        -0.2726950400 
O    3   8          2.4387633854        -0.6892946149        -0.9930378553 
C    4   6         -1.6795678008        -1.3181350010         0.9088335485 
O    5   8         -1.0430532369        -3.7610406661         1.0366773009 
O    6   8         -3.6510397079        -0.4239713965         1.6104642956 
H    7   1          1.2886722809         3.5070935991        -1.1414871815 
H    8   1         -2.4840941359        -4.6142350080         1.7976794637 
[GTO]
  1 0
s   6 1.0 
    27032.3826310000         1.4645050749
     4052.3871392000         1.8244031008
      922.3272271000         2.8547160967
      261.2407098900         4.3654874290
       85.3546413500         5.8940772662
       31.0350352400         6.2963020147
s   1 1.0 
       12.2608607300         4.6698272139
s   1 1.0 
        4.9987076000         2.3826123703
s   1 1.0 
        1.1703108200         0.8019291632
s   1 1.0 
        0.4647474100        -0.4011648063
s   1 1.0 
        0.1850453600         0.2010799377
p   4 1.0 
       63.2749548000         3.0898340730
       14.6270493800         3.3923831935
        4.4501223500         2.9482801524
        1.5275799600         1.7113350234
p   1 1.0 
        0.5293511800         0.6436057935
p   1 1.0 
        0.1747842100         0.1610897223
d   1 1.0 
        2.3140000000        12.3767310624
d   1 1.0 
        0.6450000000         1.3234257612
f   1 1.0 
        1.4280000000        12.7097950062

  2 0
s   6 1.0 
    13575.3496820000         0.7684632837
     2035.2333680000         1.0861436461
      463.2256235900         1.7703924000
      131.2001959800         2.7178496271
       42.8530158900         3.6101953426
       15.5841857700         3.6946140086
s   1 1.0 
        6.2067138500         2.8025694579
s   1 1.0 
        2.5764896500         1.4493770955
s   1 1.0 
        0.5769633900         0.4718145012
s   1 1.0 
        0.2297283100        -0.2364944648
s   1 1.0 
        0.0951644400         0.1221141848
p   4 1.0 
       34.6972322400         1.3669717438
        7.9582622800         1.4530900682
        2.3780826900         1.2707683638
        0.8143320800         0.8025478511
p   1 1.0 
        0.2888754700         0.3018758836
p   1 1.0 
        0.1005682400         0.0807265050
d   1 1.0 
        1.0970000000         3.3522135855
d   1 1.0 
        0.3180000000         0.3838994974
f   1 1.0 
        0.7610000000         3.0840084332

  3 0
s   6 1.0 
    27032.3826310000         1.4645050749
     4052.3871392000         1.8244031008
      922.3272271000         2.8547160967
      261.2407098900         4.3654874290
       85.3546413500         5.8940772662
       31.0350352400         6.2963020147
s   1 1.0 
       12.2608607300         4.6698272139
s   1 1.0 
        4.9987076000         2.3826123703
s   1 1.0 
        1.1703108200         0.8019291632
s   1 1.0 
        0.4647474100        -0.4011648063
s   1 1.0 
        0.1850453600         0.2010799377
p   4 1.0 
       63.2749548000         3.0898340730
       14.6270493800         3.3923831935
        4.4501223500         2.9482801524
        1.5275799600         1.7113350234
p   1 1.0 
        0.5293511800         0.6436057935
p   1 1.0 
        0.1747842100         0.1610897223
d   1 1.0 
        2.3140000000        12.3767310624
d   1 1.0 
        0.6450000000         1.3234257612
f   1 1.0 
        1.4280000000        12.7097950062

  4 0
s   6 1.0 
    13575.3496820000         0.7684632837
     2035.2333680000         1.0861436461
      463.2256235900         1.7703924000
      131.2001959800         2.7178496271
       42.8530158900         3.6101953426
       15.5841857700         3.6946140086
s   1 1.0 
        6.2067138500         2.8025694579
s   1 1.0 
        2.5764896500         1.4493770955
s   1 1.0 
        0.5769633900         0.4718145012
s   1 1.0 
        0.2297283100        -0.2364944648
s   1 1.0 
        0.0951644400         0.1221141848
p   4 1.0 
       34.6972322400         1.3669717438
        7.9582622800         1.4530900682
        2.3780826900         1.2707683638
        0.8143320800         0.8025478511
p   1 1.0 
        0.2888754700         0.3018758836
p   1 1.0 
        0.1005682400         0.0807265050
d   1 1.0 
        1.0970000000         3.3522135855
d   1 1.0 
        0.3180000000         0.3838994974
f   1 1.0 
        0.7610000000         3.0840084332

  5 0
s   6 1.0 
    27032.3826310000         1.4645050749
     4052.3871392000         1.8244031008
      922.3272271000         2.8547160967
      261.2407098900         4.3654874290
       85.3546413500         5.8940772662
       31.0350352400         6.2963020147
s   1 1.0 
       12.2608607300         4.6698272139
s   1 1.0 
        4.9987076000         2.3826123703
s   1 1.0 
        1.1703108200         0.8019291632
s   1 1.0 
        0.4647474100        -0.4011648063
s   1 1.0 
        0.1850453600         0.2010799377
p   4 1.0 
       63.2749548000         3.0898340730
       14.6270493800         3.3923831935
        4.4501223500         2.9482801524
        1.5275799600         1.7113350234
p   1 1.0 
        0.5293511800         0.6436057935
p   1 1.0 
        0.1747842100         0.1610897223
d   1 1.0 
        2.3140000000        12.3767310624
d   1 1.0 
        0.6450000000         1.3234257612
f   1 1.0 
        1.4280000000        12.7097950062

  6 0
s   6 1.0 
    27032.3826310000         1.4645050749
     4052.3871392000         1.8244031008
      922.3272271000         2.8547160967
      261.2407098900         4.3654874290
       85.3546413500         5.8940772662
       31.0350352400         6.2963020147
s   1 1.0 
       12.2608607300         4.6698272139
s   1 1.0 
        4.9987076000         2.3826123703
s   1 1.0 
        1.1703108200         0.8019291632
s   1 1.0 
        0.4647474100        -0.4011648063
s   1 1.0 
        0.1850453600         0.2010799377
p   4 1.0 
       63.2749548000         3.0898340730
       14.6270493800         3.3923831935
        4.4501223500         2.9482801524
        1.5275799600         1.7113350234
p   1 1.0 
        0.5293511800         0.6436057935
p   1 1.0 
        0.1747842100         0.1610897223
d   1 1.0 
        2.3140000000        12.3767310624
d   1 1.0 
        0.6450000000         1.3234257612
f   1 1.0 
        1.4280000000        12.7097950062

  7 0
s   3 1.0 
       34.0613410000         0.2556300129
        5.1235746000         0.4613599287
        1.1646626000         0.6811215012
s   1 1.0 
        0.3272304100         0.3083545312
s   1 1.0 
        0.1030724100         0.1296483265
p   1 1.0 
        0.8000000000         1.0784563492

  8 0
s   3 1.0 
       34.0613410000         0.2556300129
        5.1235746000         0.4613599287
        1.1646626000         0.6811215012
s   1 1.0 
        0.3272304100         0.3083545312
s   1 1.0 
        0.1030724100         0.1296483265
p   1 1.0 
        0.8000000000         1.0784563492

[5D]
[9G]
[MO]
 Sym=     1a
 Ene= -2.06564572671324E+01
 Spin= Alpha
 Occup= 2.000000
  1      -0.056685713605
  2      -0.053508001192
  3      -0.032636331196
  4      -0.003065947361
  5      -0.001111062898
  6      -0.000820960640
  7      -0.000217154425
  8       0.000123459817
  9       0.000075614821
 10       0.000304596555
 11      -0.000011438664
 12      -0.000129665188
 13      -0.000389320261
 14      -0.000220380157
 15       0.000206562436
 16       0.000018309667
 17       0.000011937999
 18       0.000006318005
 19       0.000009275814
 20       0.000002928213
 21      -0.000066079979
 22      -0.000048346543
 23      -0.000008274488
 24      -0.000012484185
 25      -0.000037539342
 26       0.000002886482
 27      -0.000006682596
 28       0.000008197875
 29       0.000001114689
 30       0.000010969276
 31       0.000010989598
 32       0.000013109695
 33       0.000003380063
 34      -0.000025204020
 35       0.000071032479
 36      -0.000193798821
 37       0.001189001578
 38       0.000585166894
 39      -0.000015598578
 40      -0.000050272208
 41       0.000014815415
 42       0.001957890606
 43       0.000567919276
 44      -0.000947504275
 45      -0.000723788253
 46       0.000930708019
 47       0.000163542461
 48       0.000033810365
 49       0.000017328890
 50       0.000009833572
 51       0.000022297186
 52       0.000009946922
 53      -0.000168937891
 54       0.000019142196
 55       0.000426323749
 56       0.000116635607
 57      -0.001019785586
 58       0.000031638056
 59      -0.000003678895
 60       0.000010406413
 61      -0.000088292243
 62       0.000005813776
 63      -0.000093279722
 64      -0.000025883659
 65       0.000041113070
 66       0.000066610220
 67      -0.000037300680
 68       0.000316457049
 69       0.001423319221
 70       0.000312089313
 71      -0.000021387618
 72       0.000001410782
 73       0.000009852254
 74       0.000446800694
 75      -0.000155459235
 76      -0.000174773296
 77       0.000098199320
 78      -0.000040524276
 79      -0.000035026676
 80       0.000012011813
 81       0.000006228491
 82       0.000003434066
 83       0.000007767220
 84       0.000003667750
 85      -0.000011196001
 86       0.000004460567
 87      -0.000032501566
 88      -0.000046900796
 89       0.000048936080
 90      -0.000011232813
 91       0.000002077419
 92      -0.000000816096
 93       0.000017690808
 94       0.000003582101
 95       0.000015151396
 96       0.000006537453
 97       0.000019835159
 98      -0.000091952071
 99       0.000328133819
100      -0.000367351681
101       0.000884072100
102       0.000532199616
103      -0.000068492975
104       0.000121218064
105       0.000009576972
106       0.000250734260
107       0.004251755273
108      -0.000808885927
109       0.000802224679
110      -0.002538460872
111       0.000068546335
112       0.000170856638
113       0.000031003158
114       0.000032663390
115       0.000196675828
116       0.000120751561
117       0.000823736241
118      -0.000756992369
119      -0.000040988792
120       0.002319589046
121       0.001392550253
122       0.000073650016
123       0.000028216981
124      -0.000216242257
125       0.000145355316
126      -0.000101944011
127       0.000043846160
128       0.000156651436
129      -0.432501712044
130      -0.408360593966
131      -0.248775093055
132      -0.024834357419
133      -0.014495803232
134      -0.004853647821
135       0.001574563176
136      -0.001098141986
137      -0.000497598278
138      -0.002090587950
139       0.002736456020
140       0.000449221765
141       0.000396656733
142      -0.000139581941
143      -0.000147356554
144       0.000067621063
145       0.000030216439
146      -0.000000507821
147       0.000035215575
148       0.000064577205
149      -0.000541691686
150      -0.000194648574
151      -0.000135719455
152      -0.000488281957
153      -0.000271738341
154      -0.000030841015
155       0.000028409354
156      -0.000046853550
157       0.000014415910
158       0.000024670928
159      -0.000068925664
160       0.000044838395
161       0.000139670095
162       0.000134175938
163       0.000073791638
164       0.000079069914
165       0.000846441156
166       0.001162777102
167      -0.000057822983
168      -0.000010486811
169       0.000026497724
170       0.000118817970
171       0.000318462190
172      -0.000102949114
173       0.000179144182
174       0.000461854612
175      -0.000152100407
176       0.000033171018
177       0.000033804234
178       0.000014438349
179      -0.000002162138
180      -0.000005880916
181      -0.000109106524
182      -0.000184324583
183      -0.000071971408
184       0.000110258102
185       0.000102213099
186       0.000024495913
187      -0.000017762600
188       0.000025991675
189      -0.000037008854
190       0.000006343998
191      -0.000005922494
192      -0.000008028088
193      -0.000099088960
194       0.000172316613
195       0.000087529108
196       0.000017254940
197       0.000019259155
198      -0.000010501823
199      -0.000509428956
200      -0.000629611793
201       0.000365335177
202      -0.000314632589
203      -0.000263154175
204       0.000178823755
 Sym=     1a
 Ene= -2.06564545891567E+01
 Spin= Alpha
 Occup= 2.000000
  1       0.432501335804
  2       0.408363889964
  3       0.248766682084
  4       0.024884696553
  5       0.014706057893
  6       0.004804325462
  7       0.001563407845
  8      -0.001106666142
  9      -0.000513862350
 10      -0.002066241677
 11       0.002835000740
 12       0.000467590785
 13       0.000304597815
 14      -0.000204013452
 15      -0.000102218657
 16      -0.000064765103
 17      -0.000029143191
 18       0.000004125723
 19      -0.000034763961
 20      -0.000065420919
 21       0.000542570007
 22       0.000194555378
 23       0.000123228979
 24       0.000507049719
 25       0.000265687492
 26      -0.000032565697
 27       0.000027040777
 28      -0.000046235616
 29       0.000014109378
 30       0.000027136532
 31      -0.000068127955
 32       0.000050813356
 33      -0.000019627498
 34       0.000088448889
 35      -0.000320665819
 36       0.000328506744
 37      -0.000597811373
 38      -0.000394819906
 39      -0.000074407421
 40       0.000112266400
 41       0.000015324217
 42       0.000796026683
 43       0.004557093766
 44      -0.001056804545
 45       0.000629056673
 46      -0.002381932423
 47       0.000095603917
 48      -0.000168188819
 49      -0.000029188674
 50      -0.000025450444
 51      -0.000199234628
 52      -0.000120070206
 53      -0.000904494063
 54       0.000784585471
 55       0.000186598639
 56      -0.002375437211
 57      -0.001700036319
 58       0.000079951512
 59       0.000025634893
 60      -0.000223298437
 61       0.000122262306
 62      -0.000106162287
 63       0.000022507002
 64       0.000156870037
 65      -0.000133595567
 66      -0.000121109121
 67      -0.000086323125
 68       0.000002560105
 69      -0.000496469916
 70      -0.001120215445
 71      -0.000065303341
 72      -0.000010382264
 73       0.000030610084
 74       0.000242251526
 75       0.000288153665
 76      -0.000152816761
 77       0.000212131549
 78       0.000467369219
 79      -0.000165555242
 80      -0.000030874082
 81      -0.000033836768
 82      -0.000013356884
 83       0.000003953296
 84       0.000007251163
 85       0.000108356431
 86       0.000194037089
 87       0.000064642153
 88      -0.000125356301
 89      -0.000092772191
 90       0.000023050127
 91      -0.000016810653
 92       0.000026628287
 93      -0.000033480476
 94       0.000008175516
 95      -0.000001886311
 96      -0.000006850316
 97       0.000001791810
 98       0.000001561510
 99       0.000013997883
100       0.000102574808
101      -0.000994906283
102      -0.000463595415
103      -0.000034384662
104      -0.000019689927
105       0.000017951192
106       0.002096958979
107       0.001723145989
108      -0.001187505625
109      -0.000533429269
110       0.000286874174
111       0.000191307711
112       0.000011559333
113      -0.000010620455
114      -0.000001664824
115       0.000028901026
116       0.000021593365
117       0.000394913776
118      -0.000221368633
119      -0.000454281075
120       0.000498450140
121       0.001425868364
122       0.000052196659
123       0.000002049139
124      -0.000045834579
125      -0.000051263771
126      -0.000022254543
127      -0.000086097653
128       0.000015258375
129      -0.056682811221
130      -0.053533066427
131      -0.032572199257
132      -0.003450298963
133      -0.002716176423
134      -0.000444807432
135       0.000194485685
136      -0.000165366506
137      -0.000056093381
138      -0.000243051211
139       0.000717708286
140      -0.000016030365
141      -0.000298553370
142      -0.000265830687
143       0.000171262769
144      -0.000000845800
145      -0.000004384383
146      -0.000006630704
147      -0.000000260812
148       0.000014192384
149      -0.000075594765
150      -0.000002001979
151      -0.000028677945
152      -0.000117230646
153      -0.000034135458
154      -0.000005425368
155       0.000000192996
156      -0.000003704602
157       0.000005236663
158       0.000017504017
159      -0.000007308948
160       0.000025701457
161      -0.000005299576
162      -0.000033149895
163       0.000058277815
164      -0.000306395987
165      -0.001247185900
166      -0.000012906224
167      -0.000038186380
168      -0.000001569117
169       0.000015800344
170       0.000498435067
171      -0.000074339354
172      -0.000198206524
173       0.000148425756
174       0.000080879526
175      -0.000079036106
176      -0.000003242847
177       0.000002234452
178       0.000000234183
179      -0.000008782124
180      -0.000005470326
181      -0.000019515689
182      -0.000051460756
183       0.000013874859
184       0.000079213956
185      -0.000023105561
186      -0.000004906606
187      -0.000002114046
188       0.000006151191
189       0.000008388394
190       0.000005503128
191       0.000014199881
192       0.000004632307
193       0.000500817160
194       0.000697595285
195      -0.000354778856
196      -0.000321083062
197      -0.000267220035
198       0.000182210985
199      -0.000033316294
200      -0.000346276060
201       0.000006859202
202      -0.000066128048
203      -0.000050277501
204       0.000036674190
 Sym=     1a
 Ene= -2.06025773049620E+01
 Spin= Alpha
 Occup= 2.000000
  1       0.000081792218
  2       0.000108138404
  3      -0.000017109770
  4       0.000229940666
  5       0.000495599374
  6      -0.000019880044
  7      -0.000017366814
  8      -0.000062591352
  9       0.000016662137
 10       0.000196958129
 11       0.000339390492
 12      -0.000135777280
 13       0.000311609812
 14      -0.000164669460
 15      -0.000111153376
 16      -0.000015396713
 17      -0.000010484141
 18      -0.000012471793
 19      -0.000014020624
 20       0.000012623174
 21       0.000061384681
 22       0.000039166908
 23       0.000087668025
 24       0.000092060840
 25      -0.000123241610
 26       0.000000869610
 27       0.000005501997
 28      -0.000020608624
 29       0.000021318851
 30      -0.000018413517
 31       0.000014526043
 32       0.000002264689
 33      -0.000007560510
 34      -0.000004231398
 35      -0.000121350435
 36       0.000246576500
 37      -0.001549769388
 38       0.000023993662
 39       0.000337294333
 40      -0.000203637787
 41      -0.000116006227
 42       0.005565398732
 43      -0.000487619634
 44      -0.002357929775
 45      -0.001445643072
 46       0.000089532887
 47       0.000624448507
 48      -0.000045401981
 49      -0.000061198320
 50       0.000044103823
 51       0.000077018910
 52      -0.000106046492
 53      -0.000831591226
 54      -0.000546237137
 55       0.001041052732
 56       0.000695848001
 57      -0.002690521445
 58       0.000064988400
 59      -0.000028682199
 60       0.000043029649
 61      -0.000084229512
 62      -0.000032555200
 63      -0.000008188733
 64      -0.000069985739
 65       0.322612355522
 66       0.304686307072
 67       0.185438653894
 68       0.018860031066
 69       0.012836797848
 70       0.002797333274
 71      -0.001423531144
 72       0.000669161589
 73       0.000519755001
 74       0.003264950858
 75      -0.001258441576
 76      -0.001237113885
 77       0.000009766396
 78       0.000073570494
 79      -0.000018659936
 80      -0.000094639631
 81      -0.000114225871
 82       0.000013915323
 83       0.000075739439
 84      -0.000080123106
 85       0.000171852225
 86       0.000349517635
 87      -0.000195349984
 88      -0.000517682864
 89       0.000411653653
 90       0.000018285317
 91      -0.000012616436
 92       0.000007814315
 93      -0.000015781746
 94       0.000015915374
 95      -0.000003581825
 96       0.000024800073
 97       0.000006225042
 98       0.000009741540
 99       0.000097058245
100      -0.000176866191
101       0.001327092577
102      -0.000106530954
103       0.000307784056
104      -0.000186495450
105      -0.000101753286
106       0.005322450035
107      -0.000352771604
108      -0.002240097867
109      -0.001277043355
110      -0.000072664398
111       0.000556254300
112       0.000038478745
113       0.000047001058
114      -0.000039849293
115      -0.000068806412
116       0.000098978165
117       0.000828773454
118       0.000449381706
119      -0.000982955860
120      -0.000565295136
121       0.002604024068
122       0.000058517064
123      -0.000027757186
124       0.000040596817
125      -0.000076779119
126      -0.000030241664
127      -0.000011739150
128      -0.000062292903
129      -0.000070498203
130      -0.000098726587
131       0.000026625361
132      -0.000250368424
133      -0.000603266205
134      -0.000081911905
135      -0.000015556473
136      -0.000062059362
137       0.000017517105
138       0.000175352517
139       0.000369544849
140      -0.000139286549
141       0.000301720287
142      -0.000172965199
143      -0.000100713098
144       0.000012749503
145       0.000007656942
146       0.000011651470
147       0.000013188016
148      -0.000010955177
149      -0.000054756713
150      -0.000028777769
151      -0.000083496195
152      -0.000094023298
153       0.000108299468
154       0.000001574090
155       0.000004697893
156      -0.000017767948
157       0.000019749395
158      -0.000016275997
159       0.000013938574
160       0.000002272220
161      -0.293591019125
162      -0.277280412626
163      -0.168750901565
164      -0.017194160354
165      -0.011815840417
166      -0.002474854794
167      -0.001307476527
168       0.000603895313
169       0.000462938669
170       0.003052675848
171      -0.001128427670
172      -0.001125721281
173       0.000008885576
174       0.000076855893
175      -0.000013203345
176       0.000086687769
177       0.000101251303
178      -0.000010882941
179      -0.000072104253
180       0.000070988285
181      -0.000160736894
182      -0.000314816831
183       0.000173854984
184       0.000491210061
185      -0.000362634645
186       0.000015474485
187      -0.000011181441
188       0.000006597903
189      -0.000013753092
190       0.000013344206
191      -0.000004524136
192       0.000020348599
193       0.000035242470
194      -0.000124982736
195       0.000178495055
196       0.000003781233
197       0.000027378666
198      -0.000006018956
199      -0.000030144454
200       0.000130754573
201      -0.000184349092
202       0.000006553406
203       0.000027415891
204      -0.000007238356
 Sym=     1a
 Ene= -2.06025756448972E+01
 Spin= Alpha
 Occup= 2.000000
  1       0.000116258580
  2       0.000095028560
  3       0.000101942597
  4      -0.000227776150
  5      -0.001167463121
  6      -0.001082759862
  7      -0.000011716535
  8      -0.000000313747
  9       0.000005611230
 10       0.000188270827
 11      -0.000347892651
 12      -0.000030469950
 13       0.000109430510
 14       0.000103222854
 15      -0.000062280258
 16      -0.000027313123
 17      -0.000026602335
 18      -0.000016673918
 19      -0.000005563791
 20       0.000013932248
 21       0.000057929624
 22       0.000104415364
 23       0.000079896267
 24      -0.000032263278
 25      -0.000135951028
 26      -0.000003356180
 27       0.000010360701
 28      -0.000026281904
 29       0.000020421127
 30      -0.000020765501
 31       0.000003167325
 32      -0.000001144651
 33      -0.000013861435
 34       0.000058888882
 35      -0.000252899929
 36       0.000730204427
 37      -0.002297695671
 38      -0.000879095815
 39       0.000313214903
 40      -0.000167306863
 41      -0.000111173696
 42       0.002444723680
 43      -0.001366998516
 44      -0.000861468072
 45      -0.001803011392
 46       0.001693509548
 47       0.000517634887
 48      -0.000088167223
 49      -0.000121175821
 50       0.000016854949
 51       0.000101256652
 52      -0.000076042755
 53      -0.000177182118
 54      -0.000780216604
 55       0.000488244965
 56       0.001482506434
 57      -0.000778619387
 58       0.000060967089
 59      -0.000028991431
 60       0.000041631724
 61      -0.000059062503
 62      -0.000042708030
 63       0.000020839104
 64      -0.000071146093
 65       0.293594802050
 66       0.277250654019
 67       0.168825159934
 68       0.016836706616
 69       0.010258561016
 70       0.003299409372
 71      -0.001229218140
 72       0.000640519300
 73       0.000438264882
 74       0.002252065764
 75      -0.001270415710
 76      -0.000787701416
 77       0.000031198410
 78      -0.000030271759
 79      -0.000005707010
 80      -0.000101808894
 81      -0.000103998175
 82       0.000015206849
 83       0.000052213495
 84      -0.000094236762
 85       0.000202239002
 86       0.000248074719
 87      -0.000196465333
 88      -0.000314945670
 89       0.000488372183
 90       0.000029011209
 91      -0.000022161219
 92       0.000012742451
 93      -0.000016387970
 94       0.000026580657
 95       0.000006914054
 96       0.000044612110
 97      -0.000014510367
 98       0.000058228243
 99      -0.000263180176
100       0.000750146159
101      -0.002433158191
102      -0.000873015124
103      -0.000345093275
104       0.000185130617
105       0.000117984219
106      -0.002971207604
107       0.001401555056
108       0.001046097798
109       0.001935762200
110      -0.001692691191
111      -0.000562680387
112      -0.000093517048
113      -0.000124588337
114       0.000020213104
115       0.000109079011
116      -0.000085578772
117      -0.000269686288
118      -0.000809048079
119       0.000575240772
120       0.001552404618
121      -0.001027542060
122      -0.000065088047
123       0.000032025957
124      -0.000044258090
125       0.000068886975
126       0.000046029918
127      -0.000021145605
128       0.000076915454
129       0.000123424830
130       0.000104762745
131       0.000099884832
132      -0.000205177880
133      -0.001115785664
134      -0.001079897015
135       0.000013534576
136       0.000006280023
137      -0.000006608537
138      -0.000208581209
139       0.000313515457
140       0.000037063583
141      -0.000137381845
142      -0.000087001923
143       0.000074423989
144      -0.000028697288
145      -0.000027308985
146      -0.000018045666
147      -0.000006739958
148       0.000014969705
149       0.000063532474
150       0.000107771061
151       0.000087157219
152      -0.000023310018
153      -0.000147202553
154       0.000002503292
155      -0.000011585801
156       0.000028118064
157      -0.000022679778
158       0.000021723732
159      -0.000004556286
160       0.000001294104
161       0.322615798707
162       0.304659224257
163       0.185506236636
164       0.018534708024
165       0.011419503373
166       0.003547712095
167       0.001363236287
168      -0.000698510235
169      -0.000472079576
170      -0.002559827558
171       0.001379073870
172       0.000875253080
173      -0.000029891276
174       0.000023986378
175       0.000012233846
176      -0.000111345483
177      -0.000112398074
178       0.000014453474
179       0.000060335057
180      -0.000101830476
181       0.000221919923
182       0.000273464313
183      -0.000209277168
184      -0.000366101937
185       0.000525570337
186      -0.000029780184
187       0.000024216969
188      -0.000014101853
189       0.000017731217
190      -0.000026639208
191      -0.000006072811
192      -0.000047436927
193       0.000052597168
194       0.000067465171
195      -0.000070880944
196      -0.000029679292
197      -0.000001714330
198       0.000013370871
199       0.000055675758
200       0.000055436542
201      -0.000053822092
202       0.000029335656
203      -0.000000802626
204      -0.000012417434
 Sym=     1a
 Ene= -1.14290221094333E+01
 Spin= Alpha
 Occup= 2.000000
  1      -0.000058107481
  2      -0.000049768607
  3      -0.000108297754
  4       0.000603621940
  5       0.001333443363
  6       0.001169998557
  7       0.000081832328
  8      -0.000287790531
  9       0.000008942103
 10      -0.000174734404
 11       0.000828913807
 12      -0.000052913504
 13       0.000599945715
 14      -0.000348401077
 15      -0.000209906408
 16      -0.000001170875
 17       0.000027407717
 18       0.000011592760
 19      -0.000037866579
 20      -0.000035961387
 21       0.000150783180
 22      -0.000109758601
 23      -0.000026403128
 24       0.000364895366
 25       0.000265326773
 26       0.000009659515
 27       0.000009596273
 28      -0.000041664437
 29      -0.000008058371
 30       0.000008234147
 31      -0.000055128287
 32       0.000045175217
 33       0.330450990896
 34       0.285213462485
 35       0.161088677645
 36       0.014210474430
 37       0.004780744807
 38       0.000474480071
 39      -0.000357934662
 40       0.000468645406
 41       0.000083288682
 42       0.000524999357
 43      -0.000160580203
 44      -0.000203894892
 45      -0.000620044022
 46      -0.000800445720
 47       0.000396788203
 48      -0.000374931201
 49      -0.000282833261
 50      -0.000024248768
 51      -0.000046837637
 52      -0.000237398948
 53      -0.000283814910
 54       0.000097294429
 55       0.000154666182
 56      -0.000426646594
 57      -0.000650545918
 58       0.000159105030
 59      -0.000039439258
 60      -0.000166459123
 61      -0.000108510414
 62       0.000176021351
 63      -0.000272760119
 64       0.000447593974
 65      -0.000118783661
 66      -0.000130363968
 67      -0.000125321282
 68       0.000336167072
 69       0.000930612006
 70       0.000906896922
 71      -0.000223575627
 72       0.000086889813
 73       0.000084117798
 74       0.000355998599
 75      -0.000002089050
 76      -0.000153577326
 77      -0.000248244340
 78       0.000606077342
 79       0.000015288628
 80       0.000000742754