[Molden Format]
[Title]
 Molden file created by orca_2mkl for BaseName=/home/petrimatveev_2125/_scratch/CC1/U_OH_4

[Atoms] AU
O    1   8          2.8452245796        -4.7024115192         4.5381149496 
U    2  92          2.4465963002        -2.4429547980         1.3484783335 
O    3   8          5.9404996109        -0.7438925823         0.7927930255 
O    4   8         -0.4881181501         0.2646844909         1.4962303508 
O    5   8          1.9450195206        -4.8957777458        -1.6679138598 
H    6   1          1.9652301416        -6.2145684818        -2.9066633556 
H    7   1          7.5623268297        -0.1787964382         0.2264931258 
H    8   1         -1.9499082421         1.3255068227         1.3807283997 
H    9   1          3.3584855359        -5.8682043582         5.8218815015 
[GTO]
  1 0
s   6 1.0 
    27032.3826310000         1.4645050749
     4052.3871392000         1.8244031008
      922.3272271000         2.8547160967
      261.2407098900         4.3654874290
       85.3546413500         5.8940772662
       31.0350352400         6.2963020147
s   1 1.0 
       12.2608607300         4.6698272139
s   1 1.0 
        4.9987076000         2.3826123703
s   1 1.0 
        1.1703108200         0.8019291632
s   1 1.0 
        0.4647474100        -0.4011648063
s   1 1.0 
        0.1850453600         0.2010799377
p   4 1.0 
       63.2749548000         3.0898340730
       14.6270493800         3.3923831935
        4.4501223500         2.9482801524
        1.5275799600         1.7113350234
p   1 1.0 
        0.5293511800         0.6436057935
p   1 1.0 
        0.1747842100         0.1610897223
d   1 1.0 
        2.3140000000        12.3767310624
d   1 1.0 
        0.6450000000         1.3234257612
f   1 1.0 
        1.4280000000        12.7097950062

  2 0
s   9 1.0 
 58915269.2040619999     15878.5363952950
 26779667.8200279996     -5784.7557541551
 12172576.2818310000      9027.3946318877
  5532989.2190140001       325.6868040056
  2514995.0995519999      4208.1243710139
  1143179.5907050001      1939.1491289669
   519627.0866840000      2669.4311026285
   236194.1303110000      2005.5172738201
   107360.9683230000      2058.9530636601
s   1 1.0 
    48800.4401470000      2340.0648682401
s   1 1.0 
    22182.0182490000      1295.4208592531
s   1 1.0 
    10082.7355680000       717.1233692609
s   1 1.0 
     4583.0616220000       396.9875296292
s   1 1.0 
     2083.2098280000       219.7656713216
s   1 1.0 
      946.9135580000       121.6586080998
s   1 1.0 
      430.4152540000        67.3481752053
s   1 1.0 
      195.6432970000        37.2828258248
s   1 1.0 
       88.9287710000        20.6391501245
s   1 1.0 
       40.4221690000        11.4254891526
s   1 1.0 
       18.3737130000         6.3249600754
s   1 1.0 
        8.3516880000         3.5013924304
s   1 1.0 
        3.7962220000         1.9383124866
s   1 1.0 
        1.7255550000         1.0730172334
s   1 1.0 
        0.7843430000         0.5940043302
s   1 1.0 
        0.3565200000         0.3288311987
s   1 1.0 
        0.1620540000         0.1820350044
s   1 1.0 
        0.0736610000         0.1007716339
s   1 1.0 
        0.0334820000         0.0557851540
s   1 1.0 
        0.0152190000         0.0308815919
p   8 1.0 
   839813.6669700000    124700.6825327761
   349922.3612380000     10799.0830937165
   145800.9838490000     36359.2991195727
    60750.4099370000     18163.2607860982
    25312.6708070000     17573.6487977577
    10546.9461700000     14195.6918408552
     4394.5609040000     13322.9302572221
     1831.0670430000     12107.7084625556
p   1 1.0 
      762.9446010000      5715.5278197986
p   1 1.0 
      317.8935840000      1913.3406184205
p   1 1.0 
      132.4556600000       640.5134283167
p   1 1.0 
       55.1898580000       214.4194529751
p   1 1.0 
       22.9957740000        71.7794502225
p   1 1.0 
        9.5815730000        24.0290224861
p   1 1.0 
        3.9923220000         8.0439996005
p   1 1.0 
        1.6634670000         2.6928231053
p   1 1.0 
        0.6931110000         0.9014540144
p   1 1.0 
        0.2887960000         0.3017720791
p   1 1.0 
        0.1203320000         0.1010221266
p   1 1.0 
        0.0501380000         0.0338180721
d   7 1.0 
    41049.8202270000     53262.0337640016
    16419.9280910000     26338.4031025142
     6567.9712360000     29332.4246479962
     2627.1884950000     27101.6066256769
     1050.8753980000     28990.3214062957
      420.3501590000     26289.6282344813
      168.1400640000     17820.8132210096
d   1 1.0 
       67.2560250000      4502.9764563892
d   1 1.0 
       26.9024100000       905.9509006942
d   1 1.0 
       10.7609640000       182.2676717095
d   1 1.0 
        4.3043860000        36.6703201328
d   1 1.0 
        1.7217540000         7.3776748265
d   1 1.0 
        0.6887020000         1.4843111023
d   1 1.0 
        0.2754810000         0.2986279634
d   1 1.0 
        0.1101920000         0.0600803838
d   1 1.0 
        0.0440770000         0.0120876293
f   6 1.0 
     4391.9602590000     58042.2322349557
     1689.2154840000     50234.6786083959
      649.6982630000     55932.1636963999
      249.8839470000     54589.9728655915
       96.1092110000     39385.8448814677
       36.9650810000     15829.5183325708
f   1 1.0 
       14.2173390000      2237.9031973610
f   1 1.0 
        5.4682070000       260.7061095750
f   1 1.0 
        2.1031570000        30.3711607432
f   1 1.0 
        0.8089060000         3.5381049160
f   1 1.0 
        0.3111180000         0.4121749941
f   1 1.0 
        0.1196610000         0.0480168308

  3 0
s   6 1.0 
    27032.3826310000         1.4645050749
     4052.3871392000         1.8244031008
      922.3272271000         2.8547160967
      261.2407098900         4.3654874290
       85.3546413500         5.8940772662
       31.0350352400         6.2963020147
s   1 1.0 
       12.2608607300         4.6698272139
s   1 1.0 
        4.9987076000         2.3826123703
s   1 1.0 
        1.1703108200         0.8019291632
s   1 1.0 
        0.4647474100        -0.4011648063
s   1 1.0 
        0.1850453600         0.2010799377
p   4 1.0 
       63.2749548000         3.0898340730
       14.6270493800         3.3923831935
        4.4501223500         2.9482801524
        1.5275799600         1.7113350234
p   1 1.0 
        0.5293511800         0.6436057935
p   1 1.0 
        0.1747842100         0.1610897223
d   1 1.0 
        2.3140000000        12.3767310624
d   1 1.0 
        0.6450000000         1.3234257612
f   1 1.0 
        1.4280000000        12.7097950062

  4 0
s   6 1.0 
    27032.3826310000         1.4645050749
     4052.3871392000         1.8244031008
      922.3272271000         2.8547160967
      261.2407098900         4.3654874290
       85.3546413500         5.8940772662
       31.0350352400         6.2963020147
s   1 1.0 
       12.2608607300         4.6698272139
s   1 1.0 
        4.9987076000         2.3826123703
s   1 1.0 
        1.1703108200         0.8019291632
s   1 1.0 
        0.4647474100        -0.4011648063
s   1 1.0 
        0.1850453600         0.2010799377
p   4 1.0 
       63.2749548000         3.0898340730
       14.6270493800         3.3923831935
        4.4501223500         2.9482801524
        1.5275799600         1.7113350234
p   1 1.0 
        0.5293511800         0.6436057935
p   1 1.0 
        0.1747842100         0.1610897223
d   1 1.0 
        2.3140000000        12.3767310624
d   1 1.0 
        0.6450000000         1.3234257612
f   1 1.0 
        1.4280000000        12.7097950062

  5 0
s   6 1.0 
    27032.3826310000         1.4645050749
     4052.3871392000         1.8244031008
      922.3272271000         2.8547160967
      261.2407098900         4.3654874290
       85.3546413500         5.8940772662
       31.0350352400         6.2963020147
s   1 1.0 
       12.2608607300         4.6698272139
s   1 1.0 
        4.9987076000         2.3826123703
s   1 1.0 
        1.1703108200         0.8019291632
s   1 1.0 
        0.4647474100        -0.4011648063
s   1 1.0 
        0.1850453600         0.2010799377
p   4 1.0 
       63.2749548000         3.0898340730
       14.6270493800         3.3923831935
        4.4501223500         2.9482801524
        1.5275799600         1.7113350234
p   1 1.0 
        0.5293511800         0.6436057935
p   1 1.0 
        0.1747842100         0.1610897223
d   1 1.0 
        2.3140000000        12.3767310624
d   1 1.0 
        0.6450000000         1.3234257612
f   1 1.0 
        1.4280000000        12.7097950062

  6 0
s   3 1.0 
       34.0613410000         0.2556300129
        5.1235746000         0.4613599287
        1.1646626000         0.6811215012
s   1 1.0 
        0.3272304100         0.3083545312
s   1 1.0 
        0.1030724100         0.1296483265
p   1 1.0 
        0.8000000000         1.0784563492

  7 0
s   3 1.0 
       34.0613410000         0.2556300129
        5.1235746000         0.4613599287
        1.1646626000         0.6811215012
s   1 1.0 
        0.3272304100         0.3083545312
s   1 1.0 
        0.1030724100         0.1296483265
p   1 1.0 
        0.8000000000         1.0784563492

  8 0
s   3 1.0 
       34.0613410000         0.2556300129
        5.1235746000         0.4613599287
        1.1646626000         0.6811215012
s   1 1.0 
        0.3272304100         0.3083545312
s   1 1.0 
        0.1030724100         0.1296483265
p   1 1.0 
        0.8000000000         1.0784563492

  9 0
s   3 1.0 
       34.0613410000         0.2556300129
        5.1235746000         0.4613599287
        1.1646626000         0.6811215012
s   1 1.0 
        0.3272304100         0.3083545312
s   1 1.0 
        0.1030724100         0.1296483265
p   1 1.0 
        0.8000000000         1.0784563492

[5D]
[9G]
[MO]
 Sym=     1a
 Ene= -4.26046101117075E+03
 Spin= Alpha
 Occup= 2.000000
  1      -0.000000029226
  2       0.000000132528
  3      -0.000000243421
  4       0.000000663250
  5       0.000001357743
  6       0.000001196669
  7      -0.000000018133
  8       0.000000030470
  9      -0.000000027895
 10      -0.000000068460
 11       0.000000295190
 12      -0.000000407591
 13      -0.000000688899
 14       0.000001826139
 15      -0.000001980832
 16       0.000000044093
 17       0.000000030800
 18      -0.000000085013
 19      -0.000000034016
 20      -0.000000028248
 21      -0.000000156182
 22      -0.000000165432
 23       0.000000385858
 24       0.000000151057
 25       0.000000151555
 26       0.000000033773
 27      -0.000000007586
 28      -0.000000061185
 29      -0.000000025814
 30       0.000000016739
 31      -0.000000012204
 32      -0.000000012654
 33       0.084983972062
 34       0.065169465045
 35       0.111711682198
 36       0.177550139929
 37       0.264431340641
 38       0.303181728229
 39       0.192924353082
 40       0.032220504545
 41       0.000869294652
 42      -0.000612527374
 43       0.000447834183
 44      -0.000332858845
 45       0.000237781191
 46      -0.000161635745
 47       0.000109436392
 48      -0.000075641479
 49       0.000053816394
 50      -0.000035145017
 51       0.000009960301
 52      -0.000004880791
 53       0.000001129850
 54      -0.000000032927
 55       0.000000027853
 56       0.000000016995
 57       0.000000004421
 58      -0.000000003321
 59      -0.000000001245
 60       0.000000002275
 61      -0.000000001946
 62      -0.000000000397
 63      -0.000000000873
 64       0.000000001235
 65       0.000000000085
 66       0.000000001939
 67      -0.000000002511
 68      -0.000000000171
 69      -0.000000004213
 70       0.000000005090
 71       0.000000000727
 72       0.000000007767
 73      -0.000000009231
 74      -0.000000001568
 75      -0.000000016283
 76       0.000000018412
 77       0.000000004221
 78       0.000000036579
 79      -0.000000039542
 80      -0.000000011802
 81      -0.000000085863
 82       0.000000091872
 83       0.000000035627
 84       0.000000224661
 85      -0.000000262101
 86      -0.000000146496
 87      -0.000000964299
 88       0.000001097839
 89       0.000000708706
 90       0.000000023200
 91       0.000000024885
 92       0.000000028325
 93      -0.000000010578
 94      -0.000000002799
 95      -0.000000005856
 96       0.000000000953
 97      -0.000000015222
 98       0.000000010948
 99       0.000000002183
100       0.000000005665
101      -0.000000001004
102       0.000000016342
103      -0.000000011837
104      -0.000000000734
105      -0.000000005921
106       0.000000001129
107      -0.000000018070
108       0.000000013993
109       0.000000000035
110       0.000000006427
111      -0.000000001543
112       0.000000021586
113      -0.000000021357
114       0.000000000680
115      -0.000000009341
116       0.000000002597
117      -0.000000033227
118       0.000000038847
119      -0.000000000875
120       0.000000016757
121      -0.000000005200
122       0.000000061102
123      -0.000000078000
124      -0.000000003219
125      -0.000000032995
126       0.000000012208
127      -0.000000124711
128       0.000000161397
129       0.000000021808
130       0.000000073366
131      -0.000000032299
132       0.000000251906
133      -0.000000686897
134      -0.000000294468
135      -0.000000563802
136       0.000000262165
137      -0.000001009262
138       0.000000062787
139       0.000000025608
140       0.000000034036
141      -0.000000020143
142       0.000000113151
143       0.000000002422
144      -0.000000000150
145      -0.000000016674
146      -0.000000000693
147      -0.000000005484
148      -0.000000005112
149      -0.000000012829
150      -0.000000007086
151       0.000000001085
152       0.000000049337
153       0.000000001793
154       0.000000016181
155       0.000000014936
156       0.000000037664
157       0.000000014858
158      -0.000000002400
159      -0.000000103613
160      -0.000000003539
161      -0.000000033976
162      -0.000000031371
163      -0.000000079010
164      -0.000000028583
165       0.000000003510
166       0.000000197882
167       0.000000006661
168       0.000000065025
169       0.000000060285
170       0.000000151593
171       0.000000051917
172       0.000000002538
173      -0.000000348339
174      -0.000000012538
175      -0.000000115473
176      -0.000000108913
177      -0.000000272844
178      -0.000000092038
179      -0.000000026893
180       0.000000591586
181       0.000000023529
182       0.000000198418
183       0.000000191936
184       0.000000481218
185      -0.000000020381
186       0.000000411153
187       0.000000685651
188      -0.000000164851
189       0.000000193353
190       0.000000072899
191       0.000000164324
192      -0.000000031389
193       0.000000142342
194      -0.000000261629
195       0.000000718391
196       0.000001494290
197       0.000001486380
198      -0.000000042469
199      -0.000000010133
200       0.000000019228
201      -0.000000449154
202      -0.000000215266
203       0.000000087443
204      -0.000002671762
205      -0.000000924450
206       0.000000856446
207      -0.000000042555
208      -0.000000041706
209      -0.000000015847
210       0.000000064448
211       0.000000066904
212       0.000000183009
213       0.000000230175
214       0.000000082267
215      -0.000000308318
216      -0.000000272341
217      -0.000000007274
218      -0.000000041772
219      -0.000000029607
220       0.000000015555
221       0.000000000266
222       0.000000010335
223      -0.000000054179
224      -0.000000019896
225       0.000000089783
226      -0.000000162928
227       0.000000425964
228       0.000000814924
229      -0.000000355160
230       0.000000019730
231      -0.000000009486
232       0.000000004998
233       0.000000442969
234      -0.000000384753
235      -0.000000006058
236       0.000001715029
237      -0.000001210816
238       0.000000142453
239      -0.000000049079
240       0.000000004335
241      -0.000000002810
242       0.000000018867
243      -0.000000082160
244       0.000000209949
245      -0.000000039785
246       0.000000028826
247      -0.000000114499
248       0.000000347105
249      -0.000000014163
250       0.000000002243
251      -0.000000019991
252       0.000000004191
253      -0.000000020285
254      -0.000000032050
255      -0.000000004591
256      -0.000000035624
257       0.000000161491
258      -0.000000296910
259       0.000000821667
260       0.000001786217
261       0.000002537936
262      -0.000000006230
263       0.000000037722
264       0.000000027871
265       0.000000061049
266       0.000000324538
267       0.000000388601
268       0.000000018221
269       0.000002349715
270       0.000002338979
271       0.000000030193
272       0.000000008498
273       0.000000097882
274      -0.000000044916
275       0.000000006261
276      -0.000000115287
277      -0.000000009430
278      -0.000000452544
279       0.000000227988
280      -0.000000006271
281      -0.000000016353
282      -0.000000025470
283      -0.000000054852
284       0.000000015123
285      -0.000000036454
286      -0.000000017863
287       0.000000001827
288       0.000000102891
289       0.000001898817
290       0.000000735802
291      -0.000000034168
292       0.000000385143
293       0.000000317856
294       0.000000097806
295       0.000001885038
296       0.000000667969
297      -0.000000437088
298      -0.000000130687
299       0.000000193111
300       0.000000083025
301       0.000001760469
302       0.000000595954
303       0.000000400159
304      -0.000000270759
305       0.000000046898
306       0.000000096885
307       0.000001820934
308       0.000000655748
309      -0.000000178340
310       0.000000315653
311      -0.000000317561
 Sym=     1a
 Ene= -8.04410116555981E+02
 Spin= Alpha
 Occup= 2.000000
  1       0.000000064518
  2      -0.000000307077
  3       0.000000572745
  4      -0.000001589741
  5      -0.000003246724
  6      -0.000002847109
  7       0.000000043917
  8      -0.000000076197
  9       0.000000071277
 10       0.000000156181
 11      -0.000000674434
 12       0.000000932688
 13       0.000001633596
 14      -0.000004329427
 15       0.000004696055
 16      -0.000000105427
 17      -0.000000073298
 18       0.000000203341
 19       0.000000081288
 20       0.000000067045
 21       0.000000382338
 22       0.000000395118
 23      -0.000000934617
 24      -0.000000365074
 25      -0.000000360970
 26      -0.000000080550
 27       0.000000016248
 28       0.000000152252
 29       0.000000065985
 30      -0.000000037446
 31       0.000000027947
 32       0.000000031247
 33      -0.035877192990
 34      -0.029713952088
 35      -0.049765023999
 36      -0.086683390645
 37      -0.138727358197
 38      -0.177777847175
 39      -0.072231726950
 40       0.369146311251
 41       0.610971692475
 42       0.169941386785
 43      -0.002091511551
 44       0.001804013620
 45      -0.000969373249
 46       0.000505362405
 47      -0.000287538389
 48       0.000188455091
 49      -0.000131152874
 50       0.000084313551
 51      -0.000023943776
 52       0.000011716792
 53      -0.000002710076
 54       0.000000064908
 55      -0.000000040562
 56       0.000000016833
 57       0.000000050288
 58      -0.000000019432
 59       0.000000056769
 60       0.000000078189
 61      -0.000000026740
 62       0.000000091744
 63       0.000000037703
 64      -0.000000000434
 65       0.000000100067
 66       0.000000010388
 67      -0.000000000235
 68       0.000000022391
 69       0.000000020197
 70      -0.000000020433
 71      -0.000000010097
 72      -0.000000011762
 73       0.000000016325
 74       0.000000002823
 75       0.000000036393
 76      -0.000000041877
 77      -0.000000010538
 78      -0.000000095290
 79       0.000000100727
 80       0.000000032668
 81       0.000000210195
 82      -0.000000223061
 83      -0.000000087551
 84      -0.000000537099
 85       0.000000624278
 86       0.000000348640
 87       0.000002289106
 88      -0.000002600646
 89      -0.000001680075
 90      -0.000000055074
 91      -0.000000059438
 92      -0.000000067375
 93      -0.000000726443
 94      -0.000000206410
 95      -0.000000402156
 96       0.000000064433
 97      -0.000001024023
 98      -0.000000226796
 99      -0.000000072898
100      -0.000000119763
101       0.000000020333
102      -0.000000339995
103       0.000000122293
104       0.000000019439
105       0.000000066788
106      -0.000000009738
107       0.000000192420
108      -0.000000070423
109      -0.000000009907
110      -0.000000035544
111       0.000000006639
112      -0.000000111369
113       0.000000061024
114       0.000000004542
115       0.000000027565
116      -0.000000007306
117       0.000000095376
118      -0.000000099004
119      -0.000000000705
120      -0.000000043994
121       0.000000013145
122      -0.000000155130
123       0.000000189741
124       0.000000010461
125       0.000000081047
126      -0.000000029938
127       0.000000302042
128      -0.000000383269
129      -0.000000054231
130      -0.000000174239
131       0.000000077828
132      -0.000000595953
133       0.000001625931
134       0.000000698398
135       0.000001335762
136      -0.000000621081
137       0.000002390053
138      -0.000000149506
139      -0.000000061014
140      -0.000000081139
141       0.000000047924
142      -0.000000269660
143       0.000000029836
144       0.000000028364
145      -0.000000188697
146      -0.000000019469
147      -0.000000062915
148      -0.000000069041
149      -0.000000157842
150       0.000000012952
151      -0.000000019824
152      -0.000000106380
153       0.000000000535
154      -0.000000033253
155      -0.000000027072
156      -0.000000073788
157      -0.000000040343
158       0.000000015034
159       0.000000287481
160       0.000000008544
161       0.000000093605
162       0.000000084205
163       0.000000216146
164       0.000000066090
165      -0.000000013127
166      -0.000000460276
167      -0.000000014210
168      -0.000000151011
169      -0.000000138458
170      -0.000000350721
171      -0.000000117680
172      -0.000000003549
173       0.000000789685
174       0.000000027393
175       0.000000261752
176       0.000000246284
177       0.000000617946
178       0.000000210840
179       0.000000063449
180      -0.000001347519
181      -0.000000052973
182      -0.000000452748
183      -0.000000437738
184      -0.000001099068
185       0.000000052699
186      -0.000000974269
187      -0.000001657488
188       0.000000388789
189      -0.000000468847
190      -0.000000183291
191      -0.000000415053
192       0.000000069244
193      -0.000000329218
194       0.000000614624
195      -0.000001718819
196      -0.000003568868
197      -0.000003535868
198       0.000000106419
199       0.000000026592
200      -0.000000046577
201       0.000001026979
202       0.000000493267
203      -0.000000200072
204       0.000006336059
205       0.000002192549
206      -0.000002030313
207       0.000000101834
208       0.000000099010
209       0.000000037675
210      -0.000000153811
211      -0.000000159731
212      -0.000000445385
213      -0.000000549208
214      -0.000000197065
215       0.000000743135
216       0.000000661380
217       0.000000015114
218       0.000000103190
219       0.000000072070
220      -0.000000034867
221       0.000000001423
222      -0.000000022497
223       0.000000135243
224       0.000000044334
225      -0.000000211224
226       0.000000388628
227      -0.000001035047
228      -0.000001968585
229       0.000000828050
230      -0.000000052141
231       0.000000027407
232      -0.000000011749
233      -0.000001021896
234       0.000000886562
235       0.000000013662
236      -0.000004069085
237       0.000002873583
238      -0.000000338386
239       0.000000118438
240      -0.000000010097
241       0.000000006512
242      -0.000000044848
243       0.000000198427
244      -0.000000511758
245       0.000000092893
246      -0.000000067142
247       0.000000272588
248      -0.000000847348
249       0.000000033952
250      -0.000000009872
251       0.000000051444
252      -0.000000009849
253       0.000000048575
254       0.000000080665
255       0.000000017085
256       0.000000078540
257      -0.000000372721
258       0.000000696252
259      -0.000001961566
260      -0.000004257729
261      -0.000006024103
262       0.000000014112
263      -0.000000093548
264      -0.000000070964
265      -0.000000140582
266      -0.000000741233
267      -0.000000888503
268      -0.000000043305
269      -0.000005569318
270      -0.000005544299
271      -0.000000072375
272      -0.000000020414
273      -0.000000233342
274       0.000000106929
275      -0.000000015145
276       0.000000283167
277       0.000000026782
278       0.000001091626
279      -0.000000547226
280       0.000000018649
281       0.000000038323
282       0.000000061388
283       0.000000136783
284      -0.000000041397
285       0.000000088148
286       0.000000043239
287      -0.000000002495
288      -0.000000245783
289      -0.000004487910
290      -0.000001753610
291       0.000000081926
292      -0.000000908778
293      -0.000000748119
294      -0.000000233827
295      -0.000004457375
296      -0.000001593274
297       0.000001030550
298       0.000000307058
299      -0.000000457195
300      -0.000000200865
301      -0.000004168867
302      -0.000001422477
303      -0.000000946946
304       0.000000639238
305      -0.000000111734
306      -0.000000232108
307      -0.000004305311
308      -0.000001564067
309       0.000000422413
310      -0.000000744919
311       0.000000747897
 Sym=     1a
 Ene= -6.75066821400516E+02
 Spin= Alpha
 Occup= 2.000000
  1      -0.000001130037
  2       0.000005365219
  3      -0.000010241945
  4       0.000029898408
  5       0.000057958444
  6       0.000117745056
  7      -0.000000553042
  8       0.000002540266
  9      -0.000003386422
 10       0.000003874214
 11      -0.000012622506
 12       0.000015257530
 13      -0.000013022893
 14       0.000025957391
 15      -0.000022851874
 16       0.000001736979
 17       0.000000021190
 18      -0.000001789164
 19      -0.000000583430
 20       0.000000579901
 21      -0.000008420002
 22      -0.000000659607
 23       0.000010264701
 24       0.000003417590
 25      -0.000001358495
 26       0.000000999129
 27      -0.000000178522
 28      -0.000002397874
 29      -0.000001207052
 30       0.000000082793
 31       0.000000075772
 32      -0.000000108823
 33      -0.000000004898
 34      -0.000000004210
 35      -0.000000005048
 36      -0.000000014772
 37      -0.000000005760
 38      -0.000000054166
 39       0.000000038029
 40      -0.000000137342
 41       0.000000241256
 42      -0.000000095096
 43       0.000000668745
 44      -0.000001256498
 45       0.000001827389
 46      -0.000002758009
 47       0.000003906083
 48      -0.000003557256
 49      -0.000001201981
 50       0.000000545501
 51       0.000003812038
 52       0.000003734622
 53      -0.000000467755
 54      -0.127953180678
 55       0.123478223951
 56      -0.010751155504
 57      -0.217813543442
 58       0.210195864754
 59      -0.018301593538
 60      -0.328230339180
 61       0.316751008481
 62      -0.027579262732
 63      -0.172643542272
 64       0.166605607101
 65      -0.014506197742
 66      -0.005785056091
 67       0.005582736610
 68      -0.000486065416
 69      -0.003153571800
 70       0.003043271067
 71      -0.000264981125
 72       0.002192638329
 73      -0.002115938879
 74       0.000184234264
 75      -0.001365878490
 76       0.001318087351
 77      -0.000114767574
 78       0.000854056302
 79      -0.000824167700
 80       0.000071791574
 81      -0.000561623276
 82       0.000541972323
 83      -0.000047251263
 84       0.000392070183
 85      -0.000378092717
 86       0.000032221516
 87      -0.000315497938
 88       0.000304046931
 89      -0.000024142658
 90       0.000043439008
 91      -0.000042532332
 92       0.000004250487
 93      -0.000000419541
 94      -0.000000087013
 95       0.000000175703
 96       0.000000114022
 97      -0.000000589682
 98       0.000000506084
 99       0.000000064842
100      -0.000000132464
101      -0.000000197018
102       0.000000726360
103      -0.000001392250
104      -0.000000193836
105       0.000000463484
106       0.000000316650
107      -0.000002118890
108       0.000002211088
109       0.000000300928
110      -0.000000722815
111      -0.000000484729
112       0.000003385607
113      -0.000004090045
114      -0.000000552248
115       0.000001341077
116       0.000000861709
117      -0.000006284335
118       0.000008492165
119       0.000001148961
120      -0.000002822341
121      -0.000001749639
122       0.000013035530
123      -0.000019309813
124      -0.000002632991
125       0.000006545861
126       0.000003950878
127      -0.000029499492
128       0.000037324131
129       0.000005128592
130      -0.000012582953
131      -0.000007633303
132       0.000057117161
133      -0.000098039760
134      -0.000013309836
135       0.000029716399
136       0.000019579694
137      -0.000152573378
138       0.000012678926
139       0.000001354444
140      -0.000003992536
141      -0.000003012586
142       0.000018654129
143       0.000000008751
144       0.000000535485
145      -0.000000241430
146       0.000000224630
147       0.000000092601
148      -0.000000478520
149      -0.000000462994
150      -0.000000020075
151      -0.000000301212
152       0.000000171324
153      -0.000000147781
154      -0.000000143590
155       0.000000326021
156       0.000000376633
157      -0.000000094779
158       0.000000606919
159       0.000000008519
160       0.000000215197
161       0.000000228162
162      -0.000000579268
163      -0.000000512597
164       0.000000383399
165      -0.000001594089
166      -0.000000386063
167      -0.000000478504
168      -0.000000475098
169       0.000001390990
170       0.000001016341
171      -0.000001410804
172       0.000005003724
173       0.000001934457
174       0.000001445838
175       0.000001503382
176      -0.000004126606
177      -0.000002697571
178       0.000004410629
179      -0.000014186097