[Molden Format]
[Title]
 Molden file created by orca_2mkl for BaseName=/home/nikolayandreadi/elements/Pa

[Atoms] AU
Pa   1  91          0.0000000000         0.0000000000         0.0000000000 
[GTO]
  1 0
s   9 1.0 
 57631858.1725339964     15318.1146839455
 26196299.1693340018     -5565.0020035622
 11907408.7133339997      8721.7488303571
  5412458.5060609998       341.2948940372
  2460208.4118459998      4085.4543694394
  1118276.5508389999      1905.4034809116
   508307.5231090000      2611.4146297113
   231048.8741400000      1976.6043094082
   105022.2155180000      2031.4725197545
s   1 1.0 
    47737.3706900000      2301.7278018772
s   1 1.0 
    21698.8048590000      1274.1980990770
s   1 1.0 
     9863.0931180000       705.3748034003
s   1 1.0 
     4483.2241440000       390.4837195855
s   1 1.0 
     2037.8291570000       216.1652706843
s   1 1.0 
      926.2859800000       119.6654863652
s   1 1.0 
      421.0390820000        66.2448162538
s   1 1.0 
      191.3814010000        36.6720247745
s   1 1.0 
       86.9915460000        20.3010209355
s   1 1.0 
       39.5416120000        11.2383064381
s   1 1.0 
       17.9734600000         6.2213388954
s   1 1.0 
        8.1697540000         3.4440292161
s   1 1.0 
        3.7135250000         1.9065572739
s   1 1.0 
        1.6879660000         1.0554383322
s   1 1.0 
        0.7672570000         0.5842728914
s   1 1.0 
        0.3487530000         0.3234435957
s   1 1.0 
        0.1585240000         0.1790528998
s   1 1.0 
        0.0720560000         0.0991203221
s   1 1.0 
        0.0327530000         0.0548716988
s   1 1.0 
        0.0148880000         0.0303764741
p   8 1.0 
   820588.6600690000    117960.8380814268
   341911.9416950000     10293.3338078988
   142463.3090400000     34535.2725490902
    59359.7121000000     17348.6583204729
    24733.2133750000     16831.7677005322
    10305.5055730000     13674.5392108057
     4293.9606550000     12899.6246819168
     1789.1502730000     11789.0634615762
p   1 1.0 
      745.4792800000      5552.4487579542
p   1 1.0 
      310.6163670000      1858.7479720243
p   1 1.0 
      129.4234860000       622.2378919893
p   1 1.0 
       53.9264530000       208.3015048177
p   1 1.0 
       22.4693550000        69.7313936668
p   1 1.0 
        9.3622310000        23.3434089560
p   1 1.0 
        3.9009300000         7.8144836060
p   1 1.0 
        1.6253870000         2.6159899143
p   1 1.0 
        0.6772450000         0.8757342738
p   1 1.0 
        0.2821850000         0.2931618768
p   1 1.0 
        0.1175770000         0.0981393227
p   1 1.0 
        0.0489910000         0.0328537894
d   7 1.0 
    39984.8312080000     49820.8214421646
    15993.9324830000     24763.2125679906
     6397.5729930000     27687.8895786202
     2559.0291970000     25715.0680190714
     1023.6116790000     27614.8741414884
      409.4446720000     25104.2866847335
      163.7778690000     17021.7824315036
d   1 1.0 
       65.5111470000      4300.5271063730
d   1 1.0 
       26.2044590000       865.2202593661
d   1 1.0 
       10.4817840000       174.0731121316
d   1 1.0 
        4.1927130000        35.0216472939
d   1 1.0 
        1.6770850000         7.0459809407
d   1 1.0 
        0.6708340000         1.4175763168
d   1 1.0 
        0.2683340000         0.2852020000
d   1 1.0 
        0.1073330000         0.0573790433
d   1 1.0 
        0.0429330000         0.0115439582
f   6 1.0 
     4212.3892570000     53509.6197850903
     1620.1497140000     46215.8871057453
      623.1345050000     51850.9767921649
      239.6671170000     50432.9890340126
       92.1796610000     36159.3884368328
       35.4537160000     14379.0722744372
f   1 1.0 
       13.6360440000      2037.2717616429
f   1 1.0 
        5.2446320000       237.3334078456
f   1 1.0 
        2.0171660000        27.6483213038
f   1 1.0 
        0.7758330000         3.2209103577
f   1 1.0 
        0.2983970000         0.3752213982
f   1 1.0 
        0.1147680000         0.0437116207

[5D]
[9G]
[MO]
 Sym=     1a
 Ene= -4.14972990752471E+03
 Spin= Alpha
 Occup= 1.000000
  1      -0.082736439297
  2      -0.064032721893
  3      -0.110205900076
  4      -0.176315034254
  5      -0.264167323005
  6      -0.304987889800
  7      -0.195137048533
  8      -0.032838239053
  9      -0.000846714537
 10       0.000590662800
 11      -0.000432787726
 12       0.000322847503
 13      -0.000230076506
 14       0.000154717338
 15      -0.000102309128
 16       0.000067301895
 17      -0.000043408323
 18       0.000026848038
 19      -0.000015171555
 20       0.000006948528
 21      -0.000001871887
 22      -0.000000000007
 23      -0.000000000002
 24      -0.000000000000
 25      -0.000000000018
 26      -0.000000000007
 27       0.000000000003
 28       0.000000000002
 29       0.000000000002
 30       0.000000000000
 31      -0.000000000004
 32      -0.000000000001
 33      -0.000000000000
 34       0.000000000002
 35       0.000000000001
 36       0.000000000000
 37      -0.000000000002
 38      -0.000000000001
 39      -0.000000000001
 40       0.000000000001
 41       0.000000000000
 42       0.000000000000
 43      -0.000000000000
 44      -0.000000000000
 45      -0.000000000000
 46       0.000000000000
 47       0.000000000000
 48       0.000000000000
 49      -0.000000000000
 50      -0.000000000000
 51      -0.000000000000
 52       0.000000000000
 53       0.000000000000
 54      -0.000000000000
 55      -0.000000000000
 56      -0.000000000000
 57       0.000000000000
 58       0.000000000000
 59       0.000000000000
 60      -0.000000000000
 61       0.000000021405
 62       0.000000005041
 63       0.000000002313
 64      -0.000000023596
 65      -0.000000029159
 66      -0.000000025737
 67      -0.000000006061
 68      -0.000000002785
 69       0.000000028412
 70       0.000000035024
 71       0.000000018794
 72       0.000000004417
 73       0.000000002052
 74      -0.000000020751
 75      -0.000000025564
 76      -0.000000010730
 77      -0.000000002524
 78      -0.000000001167
 79       0.000000011848
 80       0.000000014598
 81       0.000000005127
 82       0.000000001208
 83       0.000000000554
 84      -0.000000005659
 85      -0.000000006977
 86      -0.000000002695
 87      -0.000000000634
 88      -0.000000000293
 89       0.000000002973
 90       0.000000003667
 91       0.000000001959
 92       0.000000000461
 93       0.000000000213
 94      -0.000000002163
 95      -0.000000002665
 96      -0.000000001005
 97      -0.000000000236
 98      -0.000000000109
 99       0.000000001109
100       0.000000001367
101       0.000000000442
102       0.000000000104
103       0.000000000048
104      -0.000000000488
105      -0.000000000602
106      -0.000000000153
107      -0.000000000036
108      -0.000000000017
109       0.000000000169
110       0.000000000208
111       0.000000000001
112      -0.000000000000
113      -0.000000000000
114       0.000000000000
115       0.000000000000
116      -0.000000000000
117      -0.000000000001
118      -0.000000000001
119       0.000000000000
120       0.000000000000
121      -0.000000000000
122      -0.000000000001
123       0.000000000000
124       0.000000000001
125       0.000000000001
126      -0.000000000000
127      -0.000000000000
128       0.000000000000
129       0.000000000000
130      -0.000000000000
131      -0.000000000000
132      -0.000000000000
133       0.000000000000
134       0.000000000000
135      -0.000000000000
136      -0.000000000000
137       0.000000000000
138       0.000000000000
139       0.000000000000
140      -0.000000000000
141      -0.000000000000
142       0.000000000000
143       0.000000000000
144      -0.000000000000
145      -0.000000000000
146      -0.000000000000
147      -0.000000000000
148       0.000000000000
149      -0.000000000000
150      -0.000000000000
151       0.000000000000
152       0.000000000000
153       0.000000000000
154       0.000000000000
155      -0.000000000000
156      -0.000000000000
157       0.000000000000
158      -0.000000000000
159      -0.000000000000
 Sym=     1a
 Ene= -7.80331456100988E+02
 Spin= Alpha
 Occup= 1.000000
  1      -0.034737950993
  2      -0.029020544983
  3      -0.048844481174
  4      -0.085593828958
  5      -0.138058629218
  6      -0.178936967866
  7      -0.077156855605
  8       0.363384396028
  9       0.614619590655
 10       0.174680326418
 11      -0.002209783580
 12       0.002022737897
 13      -0.001115938301
 14       0.000595817210
 15      -0.000341421692
 16       0.000215559355
 17      -0.000136786441
 18       0.000083594628
 19      -0.000047064413
 20       0.000021516390
 21      -0.000005791880
 22       0.000000000414
 23       0.000000000139
 24      -0.000000000074
 25       0.000000000734
 26       0.000000000253
 27      -0.000000000129
 28       0.000000001057
 29       0.000000000345
 30      -0.000000000192
 31       0.000000000827
 32       0.000000000255
 33      -0.000000000139
 34       0.000000000175
 35       0.000000000055
 36      -0.000000000012
 37      -0.000000000024
 38      -0.000000000010
 39      -0.000000000008
 40       0.000000000016
 41       0.000000000006
 42       0.000000000003
 43      -0.000000000005
 44      -0.000000000002
 45      -0.000000000002
 46      -0.000000000003
 47      -0.000000000001
 48       0.000000000002
 49       0.000000000001
 50      -0.000000000000
 51      -0.000000000001
 52       0.000000000000
 53       0.000000000001
 54      -0.000000000001
 55       0.000000000001
 56      -0.000000000000
 57       0.000000000000
 58      -0.000000000000
 59       0.000000000000
 60      -0.000000000000
 61      -0.000001124409
 62      -0.000000265771
 63      -0.000000119498
 64       0.000001237917
 65       0.000001534088
 66      -0.000000483492
 67      -0.000000113912
 68      -0.000000052279
 69       0.000000534069
 70       0.000000657778
 71       0.000000225197
 72       0.000000052940
 73       0.000000024600
 74      -0.000000248565
 75      -0.000000306445
 76      -0.000000116392
 77      -0.000000027378
 78      -0.000000012690
 79       0.000000128590
 80       0.000000158296
 81       0.000000046670
 82       0.000000011000
 83       0.000000005047
 84      -0.000000051583
 85      -0.000000063478
 86      -0.000000020401
 87      -0.000000004789
 88      -0.000000002243
 89       0.000000022514
 90       0.000000027760
 91       0.000000020544
 92       0.000000004836
 93       0.000000002233
 94      -0.000000022699
 95      -0.000000027942
 96      -0.000000011185
 97      -0.000000002628
 98      -0.000000001226
 99       0.000000012359
100       0.000000015207
101       0.000000004198
102       0.000000000988
103       0.000000000457
104      -0.000000004637
105      -0.000000005711
106      -0.000000001525
107      -0.000000000359
108      -0.000000000166
109       0.000000001685
110       0.000000002074
111      -0.000000000010
112       0.000000000041
113       0.000000000023
114       0.000000000003
115       0.000000000003
116       0.000000000013
117       0.000000000055
118      -0.000000000015
119      -0.000000000020
120      -0.000000000004
121      -0.000000000009
122      -0.000000000012
123      -0.000000000003
124      -0.000000000021
125       0.000000000018
126       0.000000000009
127      -0.000000000001
128       0.000000000009
129       0.000000000011
130       0.000000000000
131       0.000000000007
132      -0.000000000005
133      -0.000000000006
134      -0.000000000001
135      -0.000000000003
136      -0.000000000004
137      -0.000000000001
138      -0.000000000006
139       0.000000000000
140       0.000000000003
141       0.000000000001
142       0.000000000000
143       0.000000000001
144       0.000000000001
145       0.000000000004
146      -0.000000000002
147      -0.000000000001
148       0.000000000000
149      -0.000000000001
150      -0.000000000001
151      -0.000000000000
152      -0.000000000001
153       0.000000000000
154       0.000000000000
155       0.000000000000
156       0.000000000000
157       0.000000000000
158       0.000000000000
159       0.000000000001
 Sym=     1a
 Ene= -6.57019379493349E+02
 Spin= Alpha
 Occup= 1.000000
  1       0.000000000098
  2       0.000000000081
  3       0.000000000140
  4       0.000000000233
  5       0.000000000405
  6       0.000000000465
  7       0.000000000304
  8      -0.000000001100
  9      -0.000000002002
 10      -0.000000000242
 11       0.000000000277
 12      -0.000000000195
 13       0.000000000145
 14      -0.000000000116
 15       0.000000000091
 16      -0.000000000070
 17       0.000000000058
 18      -0.000000000046
 19       0.000000000030
 20      -0.000000000017
 21       0.000000000005
 22       0.158692803558
 23       0.075865575526
 24      -0.013004917936
 25       0.272008313093
 26       0.130037826401
 27      -0.022291154418
 28       0.411672538174
 29       0.196806496059
 30      -0.033736675258
 31       0.217577756500
 32       0.104016447993
 33      -0.017830555713
 34       0.007486166842
 35       0.003578877464
 36      -0.000613493366
 37       0.003941007183
 38       0.001884059818
 39      -0.000322966571
 40      -0.002731540337
 41      -0.001305856455
 42       0.000223850473
 43       0.001677002992
 44       0.000801718020
 45      -0.000137430859
 46      -0.001007258104
 47      -0.000481535130
 48       0.000082545069
 49       0.000596803490
 50       0.000285311154
 51      -0.000048908204
 52      -0.000333770279
 53      -0.000159564307
 54       0.000027352567
 55       0.000161372159
 56       0.000077146415
 57      -0.000013224491
 58      -0.000050519040
 59      -0.000024151431
 60       0.000004140049
 61      -0.000000000173
 62      -0.000000000082
 63      -0.000000000036
 64       0.000000000248
 65       0.000000000211
 66      -0.000000000072
 67      -0.000000000029
 68      -0.000000000007
 69       0.000000000095
 70       0.000000000067
 71       0.000000000013
 72       0.000000000003
 73      -0.000000000003
 74      -0.000000000008
 75      -0.000000000019
 76      -0.000000000009
 77      -0.000000000003
 78       0.000000000001
 79       0.000000000008
 80       0.000000000007
 81       0.000000000001
 82      -0.000000000000
 83      -0.000000000001
 84      -0.000000000001
 85       0.000000000004
 86       0.000000000003
 87       0.000000000002
 88       0.000000000001
 89      -0.000000000004
 90      -0.000000000003
 91       0.000000000002
 92       0.000000000001
 93      -0.000000000000
 94      -0.000000000002
 95      -0.000000000002
 96      -0.000000000000
 97      -0.000000000000
 98       0.000000000000
 99       0.000000000000
100       0.000000000000
101      -0.000000000001
102      -0.000000000000
103      -0.000000000000
104       0.000000000001
105       0.000000000001
106      -0.000000000000
107      -0.000000000000
108       0.000000000000
109       0.000000000000
110      -0.000000000000
111      -0.000000293249
112      -0.000000988011
113      -0.000000349939
114      -0.000000397694
115      -0.000000466745
116      -0.000000271189
117      -0.000001257797
118       0.000000412713
119       0.000000530245
120       0.000000125492
121       0.000000332978
122       0.000000386706
123       0.000000110406
124       0.000000599470
125      -0.000000381383
126      -0.000000287486
127      -0.000000029447
128      -0.000000254221
129      -0.000000293822
130      -0.000000038523
131      -0.000000278163
132       0.000000126315
133       0.000000162895
134       0.000000038651
135       0.000000102061
136       0.000000118554
137       0.000000034030
138       0.000000184275
139       0.000000000823
140      -0.000000076903
141      -0.000000033087
142      -0.000000019947
143      -0.000000023670
144      -0.000000024142
145      -0.000000105029
146       0.000000052418
147       0.000000036149
148       0.000000002599
149       0.000000034044
150       0.000000039334
151       0.000000004273
152       0.000000033631
153      -0.000000003685
154      -0.000000012071
155      -0.000000004259
156      -0.000000004914
157      -0.000000005752
158      -0.000000003275
159      -0.000000015351
 Sym=     1a
 Ene= -6.57017799217582E+02
 Spin= Alpha
 Occup= 1.000000
  1       0.000000000015
  2       0.000000000013
  3       0.000000000022
  4       0.000000000036
  5       0.000000000063
  6       0.000000000076
  7       0.000000000039
  8      -0.000000000175
  9      -0.000000000300
 10      -0.000000000012
 11      -0.000000000018
 12       0.000000000036
 13      -0.000000000022
 14       0.000000000009
 15      -0.000000000004
 16       0.000000000000
 17       0.000000000002
 18      -0.000000000001
 19      -0.000000000001
 20       0.000000000002
 21      -0.000000000001
 22       0.040252838503
 23      -0.107195919266
 24      -0.134152666862
 25       0.068995643088
 26      -0.183739872021
 27      -0.229945262877
 28       0.104422061165
 29      -0.278082726734
 30      -0.348012681001
 31       0.055188548074
 32      -0.146970682654
 33      -0.183929660441
 34       0.001898654143
 35      -0.005056236360
 36      -0.006327737649
 37       0.000999768011
 38      -0.002662446627
 39      -0.003331976835
 40      -0.000692958861
 41       0.001845395908
 42       0.002309460559
 43       0.000425415327
 44      -0.001132909479
 45      -0.001417804059
 46      -0.000255478343
 47       0.000680354796
 48       0.000851444947
 49       0.000151380652
 50      -0.000403136350
 51      -0.000504513789
 52      -0.000084682441
 53       0.000225515184
 54       0.000282225814
 55       0.000040928869
 56      -0.000108996117
 57      -0.000136405587
 58      -0.000012816066
 59       0.000034130038
 60       0.000042712774
 61       0.000000000100
 62      -0.000000000341
 63      -0.000000000125
 64       0.000000000216
 65      -0.000000000231
 66      -0.000000000053
 67      -0.000000000197
 68       0.000000000044
 69       0.000000000059
 70      -0.000000000126
 71       0.000000000081
 72       0.000000000001
 73      -0.000000000112
 74       0.000000000052
 75      -0.000000000005
 76      -0.000000000035
 77      -0.000000000022
 78       0.000000000043
 79      -0.000000000012
 80      -0.000000000012
 81       0.000000000006
 82       0.000000000016
 83      -0.000000000003
 84      -0.000000000004
 85       0.000000000010
 86      -0.000000000005
 87       0.000000000007
 88       0.000000000007
 89      -0.000000000007
 90       0.000000000005
 91       0.000000000007
 92       0.000000000007
 93      -0.000000000008
 94       0.000000000001
 95       0.000000000004
 96      -0.000000000003
 97      -0.000000000001
 98       0.000000000005
 99      -0.000000000002
100      -0.000000000000
101       0.000000000000
102       0.000000000001
103      -0.000000000000
104      -0.000000000000
105       0.000000000000
106      -0.000000000000
107      -0.000000000000
108       0.000000000001
109      -0.000000000000
110      -0.000000000000
111       0.000000358841
112       0.000000328331
113       0.000000379110
114       0.000000001744
115      -0.000000684432
116      -0.000000650892
117      -0.000000052970
118      -0.000000281942
119      -0.000000352870
120      -0.000000374010
121      -0.000000120065
122       0.000000662765
123       0.000000574583
124       0.000000113595
125       0.000000159287
126       0.000000292010
127       0.000000285304
128       0.000000184008
129      -0.000000496653
130      -0.000000386457
131      -0.000000135003
132      -0.000000081182
133      -0.000000106782
134      -0.000000111821
135      -0.000000041084
136       0.000000197676
137       0.000000168906
138       0.000000036698
139       0.000000051803
140       0.000000013696
141       0.000000027922
142      -0.000000042105
143      -0.000000054302
144      -0.000000071424
145       0.000000018293
146      -0.000000015695
147      -0.000000038783
148      -0.000000036094
149      -0.000000030700
150       0.000000062149
151       0.000000044766
152       0.000000020981
153       0.000000007734
154       0.000000004652
155       0.000000006248
156      -0.000000003016
157      -0.000000011545
158      -0.000000012403
159       0.000000000737
 Sym=     1a
 Ene= -6.57017793574550E+02
 Spin= Alpha
 Occup= 1.000000
  1       0.000000000005
  2       0.000000000004
  3       0.000000000007
  4       0.000000000012
  5       0.000000000020
  6       0.000000000024
  7       0.000000000014
  8      -0.000000000079
  9      -0.000000000081
 10       0.000000000008
 11       0.000000000049
 12      -0.000000000039
 13       0.000000000021
 14      -0.000000000012
 15       0.000000000010
 16      -0.000000000008
 17       0.000000000008
 18      -0.000000000009
 19       0.000000000009
 20      -0.000000000006
 21       0.000000000002
 22       0.065608207353
 23      -0.117735422609
 24       0.113763474008
 25       0.112456180236
 26      -0.201805177282
 27       0.194997032567
 28       0.170197793167
 29      -0.305423821872
 30       0.295119974544
 31       0.089951956259
 32      -0.161420834861
 33       0.155975105418
 34       0.003094619899
 35      -0.005553363662
 36       0.005366014503
 37       0.001629525275
 38      -0.002924219820
 39       0.002825567711
 40      -0.001129455975
 41       0.002026835708
 42      -0.001958457723
 43       0.000693385802
 44      -0.001244297347
 45       0.001202319345
 46      -0.000416404818
 47       0.000747247443
 48      -0.000722038214
 49       0.000246735740
 50      -0.000442772784
 51       0.000427835319
 52      -0.000138024232
 53       0.000247687917
 54      -0.000239331817
 55       0.000066710065
 56      -0.000119712637
 57       0.000115674000
 58      -0.000020888948
 59       0.000037485713
 60      -0.000036221083
 61      -0.000000000155
 62       0.000000000293
 63       0.000000000112
 64       0.000000000254
 65      -0.000000000278
 66       0.000000000060
 67       0.000000000095
 68       0.000000000114
 69       0.000000000132
 70      -0.000000000066
 71      -0.000000000104
 72       0.000000000070
 73      -0.000000000046
 74       0.000000000008
 75      -0.000000000076
 76       0.000000000046
 77      -0.000000000014
 78       0.000000000028
 79       0.000000000011
 80       0.000000000020
 81      -0.000000000008
 82      -0.000000000008
 83      -0.000000000008
 84      -0.000000000010
 85       0.000000000005
 86       0.000000000007
 87      -0.000000000009
 88      -0.000000000001
 89      -0.000000000005
 90       0.000000000008
 91      -0.000000000009
 92       0.000000000001
 93      -0.000000000007
 94      -0.000000000004
 95      -0.000000000002
 96       0.000000000004
 97      -0.000000000003
 98       0.000000000002
 99      -0.000000000000
100       0.000000000003
101      -0.000000000000
102      -0.000000000000
103      -0.000000000000
104      -0.000000000000
105       0.000000000000
106       0.000000000001
107      -0.000000000000
108       0.000000000000
109       0.000000000000
110       0.000000000000
111      -0.000000281032
112      -0.000000558426
113      -0.000000021335
114       0.000000531057
115       0.000000140171
116      -0.000000629690
117       0.000000426248
118       0.000000213625
119       0.000000577974
120       0.000000055393
121      -0.000000534085
122      -0.000000035673
123       0.000000514207
124      -0.000000449600
125      -0.000000113481
126      -0.000000463020
127      -0.000000068946
128       0.000000415950
129      -0.000000052552
130      -0.000000309623
131       0.000000365640
132       0.000000061093
133       0.000000174076
134       0.000000018062
135      -0.000000160174
136      -0.000000006196
137       0.000000149125
138      -0.000000135681
139      -0.000000043260
140      -0.000000030797
141       0.000000010593
142       0.000000035077
143       0.000000046679
144      -0.000000083914
145       0.000000021044
146       0.000000010392
147       0.000000060393
148       0.000000010861
149      -0.000000053331
150       0.000000013036
151       0.000000032576
152      -0.000000048073
153      -0.000000006254
154      -0.000000008440
155       0.000000000523
156       0.000000008451
157       0.000000004924
158      -0.000000013066
159       0.000000006281
 Sym=     1a
 Ene= -1.99574008148057E+02
 Spin= Alpha
 Occup= 1.000000
  1       0.016990176196
  2       0.014406366391
  3       0.024026914501
  4       0.043248192983
  5       0.069604551350
  6       0.094970435971
  7       0.029608667185
  8      -0.288731296745
  9      -0.693965032707
 10       0.181199381079
 11       0.992302193168
 12       0.147579315843
 13       0.018573907514
 14      -0.014241838814
 15       0.010119460580
 16      -0.006965763093
 17       0.004589095723
 18      -0.002864970924
 19       0.001627428383
 20      -0.000747255038
 21       0.000201559659
 22      -0.000000002353
 23      -0.000000000708
 24       0.000000000356
 25      -0.000000004347
 26      -0.000000001310
 27       0.000000000656
 28      -0.000000006652
 29      -0.000000002007
 30       0.000000001014
 31       0.000000001722
 32       0.000000000595
 33      -0.000000000290
 34       0.000000018927
 35       0.000000005646
 36      -0.000000002879
 37       0.000000006478
 38       0.000000001880
 39      -0.000000000920
 40      -0.000000000553
 41      -0.000000000156
 42       0.000000000071
 43       0.000000000460
 44       0.000000000125
 45      -0.000000000061
 46      -0.000000000157
 47      -0.000000000042
 48       0.000000000001
 49       0.000000000136
 50       0.000000000048
 51       0.000000000014
 52      -0.000000000096
 53      -0.000000000040
 54      -0.000000000022
 55       0.000000000040
 56       0.000000000022
 57       0.000000000026
 58      -0.000000000016
 59      -0.000000000010
 60      -0.000000000010
 61      -0.000013655340
 62      -0.000003216390
 63      -0.000001476459
 64       0.000015068841
 65       0.000018589062
 66      -0.000025579332
 67      -0.000006032816
 68      -0.000002748425
 69       0.000028212372
 70       0.000034841656
 71      -0.000010281021
 72      -0.000002423166
 73      -0.000001107749
 74       0.000011338104
 75       0.000014003125
 76       0.000000753564
 77       0.000000177471
 78       0.000000081549
 79      -0.000000832109
 80      -0.000001025285
 81      -0.000001012643
 82      -0.000000239273
 83      -0.000000107876
 84       0.000001117246
 85       0.000001379392
 86       0.000000179955
 87       0.000000042528
 88       0.000000019096
 89      -0.000000198045
 90      -0.000000245546
 91      -0.000000214446
 92      -0.000000050692
 93      -0.000000022805
 94       0.000000236529
 95       0.000000292199
 96       0.000000134718
 97       0.000000031737
 98       0.000000014546
 99      -0.000000148697
100      -0.000000183358
101      -0.000000043871
102      -0.000000010368
103      -0.000000004666
104       0.000000048364
105       0.000000059796
106       0.000000016599
107       0.000000003918
108       0.000000001775
109      -0.000000018306
110      -0.000000022614
111      -0.000000000325
112       0.000000000220
113       0.000000000161
114      -0.000000000098
115      -0.000000000101
116       0.000000000122
117       0.000000000402
118       0.000000000199
119      -0.000000000160
120      -0.000000000124
121       0.000000000059
122       0.000000000065
123      -0.000000000080
124      -0.000000000270
125      -0.000000000268
126       0.000000000158
127       0.000000000149
128      -0.000000000085
129      -0.000000000103
130       0.000000000087
131       0.000000000281
132       0.000000000088
133      -0.000000000045
134      -0.000000000044
135       0.000000000029
136       0.000000000034
137      -0.000000000028
138      -0.000000000085
139      -0.000000000006
140       0.000000000023
141       0.000000000011
142       0.000000000001
143       0.000000000003
144       0.000000000009
145       0.000000000034
146       0.000000000026
147      -0.000000000013
148      -0.000000000013
149       0.000000000008
150       0.000000000010
151      -0.000000000008
152      -0.000000000025
153      -0.000000000004
154       0.000000000004
155       0.000000000003
156      -0.000000000001
157      -0.000000000001
158       0.000000000002
159       0.000000000007
 Sym=     1a
 Ene= -1.64556023701336E+02
 Spin= Alpha
 Occup= 1.000000
  1       0.000000000438
  2       0.000000000371
  3       0.000000000621
  4       0.000000001113
  5       0.000000001802
  6       0.000000002443
  7       0.000000000785
  8      -0.000000007616
  9      -0.000000018571
 10       0.000000006912
 11       0.000000024377
 12       0.000000003442
 13       0.000000001084
 14      -0.000000001493
 15       0.000000000760
 16      -0.000000000683
 17       0.000000000697
 18      -0.000000000575
 19       0.000000000447
 20      -0.000000000284
 21       0.000000000101
 22       0.088529143819
 23       0.042204593939
 24      -0.007253396103
 25       0.163028960967
 26       0.077720971989
 27      -0.013357337240
 28       0.251695447264
 29       0.119991040970
 30      -0.020621986146
 31      -0.104803357678
 32      -0.049963008416
 33       0.008586779817
 34      -0.667468984096
 35      -0.318203219456
 36       0.054687266980
 37      -0.233489523238
 38      -0.111311710980
 39       0.019130333023
 40       0.006939341915
 41       0.003308194673
 42      -0.000568556111
 43      -0.005704819880
 44      -0.002719664288
 45       0.000467408849
 46       0.003270194162
 47       0.001559005052
 48      -0.000267934500
 49      -0.001845647177
 50      -0.000879878445
 51       0.000151218131
 52       0.001019109616
 53       0.000485839944
 54      -0.000083497960
 55      -0.000491214424
 56      -0.000234177686
 57       0.000040246326
 58       0.000153756851
 59       0.000073300587
 60      -0.000012597649
 61       0.000000003255
 62       0.000000001215
 63       0.000000000454
 64      -0.000000004369
 65      -0.000000003796