[Molden Format]
[Title]
 Molden file created by orca_2mkl for BaseName=/data01/Nikolayandreadi/heavy/CC/NpO2_OH

[Atoms] AU
Np   1  93          4.8881489214        -0.0701636416        -0.2378749463 
O    2   8          5.1867407684        -3.2378567579         0.2793374274 
O    3   8          4.5561580548         3.1466170007         0.1187258238 
O    4   8          0.9948897869        -0.6109333413        -0.8693987435 
H    5   1         -0.1805671115         0.7723329607        -1.0367850153 
[GTO]
  1 0
s   9 1.0 
 60212393.7825810015     16460.1280594584
 27369269.9011729993     -6013.5086094560
 12440577.2278060000      9343.9211279925
  5654807.8308210000       308.3663916485
  2570367.1958280001      4334.3325603517
  1168348.7253759999      1972.8827387435
   531067.6024440000      2728.3967901233
   241394.3647470000      2034.2792369220
   109724.7112490000      2086.3436128711
s   1 1.0 
    49874.8687490000      2378.6000111367
s   1 1.0 
    22670.3948860000      1316.7532712607
s   1 1.0 
    10304.7249480000       728.9326365214
s   1 1.0 
     4683.9658860000       403.5249429308
s   1 1.0 
     2129.0754030000       223.3846742626
s   1 1.0 
      967.7615470000       123.6620277677
s   1 1.0 
      439.8916120000        68.4572348252
s   1 1.0 
      199.9507330000        37.8967827997
s   1 1.0 
       90.8866970000        20.9790265547
s   1 1.0 
       41.3121350000        11.6136389953
s   1 1.0 
       18.7782430000         6.4291166887
s   1 1.0 
        8.5355650000         3.5590517075
s   1 1.0 
        3.8798020000         1.9702315267
s   1 1.0 
        1.7635460000         1.0906871246
s   1 1.0 
        0.8016120000         0.6037862931
s   1 1.0 
        0.3643690000         0.3342459531
s   1 1.0 
        0.1656220000         0.1850327531
s   1 1.0 
        0.0752830000         0.1024313225
s   1 1.0 
        0.0342190000         0.0567035929
s   1 1.0 
        0.0155540000         0.0313900251
p   8 1.0 
   859302.8310040000    131775.7051530663
   358042.8462520000     11325.8407160590
   149184.5192720000     38266.0812549783
    62160.2163630000     19009.8155098714
    25900.0901510000     18342.5702252260
    10791.7042300000     14732.4699955005
     4496.5434290000     13756.3118120073
     1873.5597620000     12431.3284313481
p   1 1.0 
      780.6499010000      5881.8029941886
p   1 1.0 
      325.2707920000      1969.0031994381
p   1 1.0 
      135.5294970000       659.1471384521
p   1 1.0 
       56.4706240000       220.6573109288
p   1 1.0 
       23.5294270000        73.8676489948
p   1 1.0 
        9.8039280000        24.7280704473
p   1 1.0 
        4.0849700000         8.2780143929
p   1 1.0 
        1.7020710000         2.7711636791
p   1 1.0 
        0.7091960000         0.9276794468
p   1 1.0 
        0.2954980000         0.3105512418
p   1 1.0 
        0.1231240000         0.1039605296
p   1 1.0 
        0.0513020000         0.0348023010
d   7 1.0 
    42129.4422870000     56906.5227948507
    16851.7769150000     28000.6591442440
     6740.7107660000     31059.1451506409
     2696.2843060000     28550.8495479176
     1078.5137230000     30419.9475915360
      431.4054890000     27516.9214778059
      172.5621960000     18646.3556919396
d   1 1.0 
       69.0248780000      4712.2678372904
d   1 1.0 
       27.6099510000       948.0580852984
d   1 1.0 
       11.0439810000       190.7392068921
d   1 1.0 
        4.4175920000        38.3746907348
d   1 1.0 
        1.7670370000         7.7205805666
d   1 1.0 
        0.7068150000         1.5532993453
d   1 1.0 
        0.2827260000         0.3125072837
d   1 1.0 
        0.1130900000         0.0628727477
d   1 1.0 
        0.0452360000         0.0126493272
f   6 1.0 
     4574.1842730000     62886.0548377263
     1759.3016440000     54541.2436081452
      676.6544780000     60258.2175061621
      260.2517220000     58997.4055482529
      100.0968160000     42811.8352412536
       38.4987760000     17381.1576470009
f   1 1.0 
       14.8072210000      2452.2547560014
f   1 1.0 
        5.6950850000       285.6771815775
f   1 1.0 
        2.1904170000        33.2801582217
f   1 1.0 
        0.8424680000         3.8769951722
f   1 1.0 
        0.3240260000         0.4516528586
f   1 1.0 
        0.1246250000         0.0526152593

  2 0
s   6 1.0 
    27032.3826310000         1.4645050749
     4052.3871392000         1.8244031008
      922.3272271000         2.8547160967
      261.2407098900         4.3654874290
       85.3546413500         5.8940772662
       31.0350352400         6.2963020147
s   1 1.0 
       12.2608607300         4.6698272139
s   1 1.0 
        4.9987076000         2.3826123703
s   1 1.0 
        1.1703108200         0.8019291632
s   1 1.0 
        0.4647474100        -0.4011648063
s   1 1.0 
        0.1850453600         0.2010799377
p   4 1.0 
       63.2749548000         3.0898340730
       14.6270493800         3.3923831935
        4.4501223500         2.9482801524
        1.5275799600         1.7113350234
p   1 1.0 
        0.5293511800         0.6436057935
p   1 1.0 
        0.1747842100         0.1610897223
d   1 1.0 
        2.3140000000        12.3767310624
d   1 1.0 
        0.6450000000         1.3234257612
f   1 1.0 
        1.4280000000        12.7097950062

  3 0
s   6 1.0 
    27032.3826310000         1.4645050749
     4052.3871392000         1.8244031008
      922.3272271000         2.8547160967
      261.2407098900         4.3654874290
       85.3546413500         5.8940772662
       31.0350352400         6.2963020147
s   1 1.0 
       12.2608607300         4.6698272139
s   1 1.0 
        4.9987076000         2.3826123703
s   1 1.0 
        1.1703108200         0.8019291632
s   1 1.0 
        0.4647474100        -0.4011648063
s   1 1.0 
        0.1850453600         0.2010799377
p   4 1.0 
       63.2749548000         3.0898340730
       14.6270493800         3.3923831935
        4.4501223500         2.9482801524
        1.5275799600         1.7113350234
p   1 1.0 
        0.5293511800         0.6436057935
p   1 1.0 
        0.1747842100         0.1610897223
d   1 1.0 
        2.3140000000        12.3767310624
d   1 1.0 
        0.6450000000         1.3234257612
f   1 1.0 
        1.4280000000        12.7097950062

  4 0
s   6 1.0 
    27032.3826310000         1.4645050749
     4052.3871392000         1.8244031008
      922.3272271000         2.8547160967
      261.2407098900         4.3654874290
       85.3546413500         5.8940772662
       31.0350352400         6.2963020147
s   1 1.0 
       12.2608607300         4.6698272139
s   1 1.0 
        4.9987076000         2.3826123703
s   1 1.0 
        1.1703108200         0.8019291632
s   1 1.0 
        0.4647474100        -0.4011648063
s   1 1.0 
        0.1850453600         0.2010799377
p   4 1.0 
       63.2749548000         3.0898340730
       14.6270493800         3.3923831935
        4.4501223500         2.9482801524
        1.5275799600         1.7113350234
p   1 1.0 
        0.5293511800         0.6436057935
p   1 1.0 
        0.1747842100         0.1610897223
d   1 1.0 
        2.3140000000        12.3767310624
d   1 1.0 
        0.6450000000         1.3234257612
f   1 1.0 
        1.4280000000        12.7097950062

  5 0
s   3 1.0 
       34.0613410000         0.2556300129
        5.1235746000         0.4613599287
        1.1646626000         0.6811215012
s   1 1.0 
        0.3272304100         0.3083545312
s   1 1.0 
        0.1030724100         0.1296483265
p   1 1.0 
        0.8000000000         1.0784563492

[5D]
[7F]
[9G]
[MO]
 Sym=     1a
 Ene= -4.37339706315450E+03
 Spin= Alpha
 Occup= 1.000000
  1       0.087306432517
  2       0.066328198572
  3       0.113242594200
  4       0.178787855293
  5       0.264676381231
  6       0.301328000767
  7       0.190680891403
  8       0.031596880405
  9       0.000893017704
 10      -0.000634388287
 11       0.000462433733
 12      -0.000341793187
 13       0.000243355996
 14      -0.000165098174
 15       0.000111426600
 16      -0.000076501282
 17       0.000052372169
 18      -0.000032191150
 19       0.000008443491
 20      -0.000004700510
 21       0.000001324870
 22       0.000000182587
 23       0.000000011672
 24      -0.000000003752
 25      -0.000000022785
 26      -0.000000005130
 27       0.000000021713
 28      -0.000000003320
 29      -0.000000002238
 30       0.000000011927
 31      -0.000000005371
 32       0.000000000339
 33      -0.000000002866
 34       0.000000007696
 35      -0.000000001164
 36       0.000000007248
 37      -0.000000007342
 38       0.000000002598
 39      -0.000000014730
 40       0.000000011425
 41      -0.000000004139
 42       0.000000022859
 43      -0.000000008794
 44       0.000000007108
 45      -0.000000042244
 46      -0.000000008385
 47      -0.000000011557
 48       0.000000093482
 49       0.000000081134
 50       0.000000025266
 51      -0.000000251822
 52      -0.000000365644
 53      -0.000000115862
 54       0.000000540767
 55       0.000001052130
 56       0.000000906467
 57      -0.000001313537
 58      -0.000000017448
 59      -0.000000135170
 60       0.000000057016
 61      -0.000000024879
 62       0.000000000879
 63      -0.000000002311
 64      -0.000000031927
 65      -0.000000008121
 66       0.000000003754
 67      -0.000000002197
 68      -0.000000000358
 69      -0.000000013212
 70      -0.000000001903
 71      -0.000000060377
 72       0.000000007185
 73      -0.000000004566
 74      -0.000000060510
 75      -0.000000013614
 76       0.000000107060
 77      -0.000000011595
 78       0.000000008515
 79       0.000000116216
 80       0.000000024900
 81      -0.000000199386
 82       0.000000020450
 83      -0.000000016342
 84      -0.000000225524
 85      -0.000000047757
 86       0.000000355206
 87      -0.000000036411
 88       0.000000029857
 89       0.000000403857
 90       0.000000085907
 91      -0.000000460821
 92       0.000000058586
 93      -0.000000040443
 94      -0.000000451077
 95      -0.000000100813
 96       0.000000104512
 97      -0.000000068954
 98       0.000000019148
 99      -0.000000254266
100      -0.000000025760
101       0.000001982092
102      -0.000000113945
103       0.000000204167
104       0.000002947790
105       0.000000507401
106      -0.000000400488
107       0.000000014610
108      -0.000000035752
109      -0.000000630779
110      -0.000000043793
111      -0.000000003373
112       0.000000003586
113       0.000000000148
114      -0.000000007735
115      -0.000000001626
116       0.000000004082
117       0.000000001397
118       0.000000009984
119      -0.000000010491
120      -0.000000000416
121       0.000000022718
122       0.000000004849
123      -0.000000012018
124      -0.000000004510
125      -0.000000022337
126       0.000000021433
127       0.000000001016
128      -0.000000048802
129      -0.000000010316
130       0.000000025055
131       0.000000009280
132       0.000000044156
133      -0.000000040615
134      -0.000000002619
135       0.000000094703
136       0.000000019912
137      -0.000000048803
138      -0.000000017188
139      -0.000000063357
140       0.000000073909
141       0.000000010538
142      -0.000000150936
143      -0.000000032134
144       0.000000096972
145       0.000000028079
146      -0.000000103557
147      -0.000000106692
148      -0.000000048861
149      -0.000000025136
150      -0.000000000554
151      -0.000000188994
152      -0.000000033528
153       0.000000396319
154      -0.000000076336
155      -0.000000022252
156       0.000000580905
157       0.000000109422
158       0.000000045133
159       0.000000080143
160      -0.000000021079
161       0.000000099190
162      -0.000000201134
163       0.000000915054
164       0.000002141374
165       0.000006063821
166      -0.000000005907
167       0.000000072083
168       0.000000008002
169       0.000000076379
170      -0.000000654195
171       0.000000035073
172      -0.000000311633
173       0.000002071117
174      -0.000000043478
175       0.000000028414
176      -0.000000005821
177       0.000000019389
178       0.000000029169
179       0.000000005886
180       0.000000178405
181       0.000000000794
182       0.000000089397
183       0.000000378844
184       0.000000085602
185      -0.000000007582
186      -0.000000005969
187       0.000000049384
188      -0.000000011574
189      -0.000000003077
190       0.000000028446
191      -0.000000063431
192      -0.000000020234
193       0.000000095838
194      -0.000000195932
195       0.000000878151
196       0.000001946499
197       0.000004961679
198       0.000000005057
199      -0.000000085906
200       0.000000008437
201      -0.000000041337
202       0.000000660582
203       0.000000007964
204       0.000000069833
205      -0.000001739887
206       0.000000131738
207       0.000000022955
208      -0.000000002129
209      -0.000000011289
210       0.000000021007
211       0.000000004436
212       0.000000197591
213       0.000000014777
214      -0.000000064636
215       0.000000399710
216       0.000000070481
217      -0.000000004878
218       0.000000005552
219      -0.000000062787
220      -0.000000007812
221      -0.000000001728
222      -0.000000018315
223       0.000000083282
224      -0.000000010235
225       0.000000045006
226      -0.000000076023
227       0.000000050300
228      -0.000000062523
229       0.000000803149
230       0.000000042848
231      -0.000000030149
232       0.000000002582
233       0.000000088340
234       0.000000228068
235       0.000000030473
236       0.000000570134
237       0.000000071397
238       0.000000071924
239       0.000000002855
240       0.000000008146
241       0.000000004352
242       0.000000074290
243       0.000000025774
244      -0.000000097766
245       0.000000013413
246      -0.000000018082
247      -0.000000153800
248      -0.000000115993
249       0.000000036707
250       0.000000089604
251      -0.000000012053
252      -0.000000040399
253      -0.000000008786
254       0.000000072843
255       0.000000058403
256      -0.000000058897
257      -0.000000419288
258       0.000000448813
259      -0.000000188549
260       0.000000019670
261      -0.000000026575
 Sym=     1a
 Ene= -8.29052763380803E+02
 Spin= Alpha
 Occup= 1.000000
  1       0.037061807018
  2       0.030425902060
  3       0.050706198987
  4       0.087784166439
  5       0.139377457422
  6       0.176535622943
  7       0.067157655447
  8      -0.374926737265
  9      -0.607143644044
 10      -0.165188823943
 11       0.001954784076
 12      -0.001581255550
 13       0.000815428259
 14      -0.000403511508
 15       0.000218334960
 16      -0.000139587676
 17       0.000092833196
 18      -0.000056035350
 19       0.000014771688
 20      -0.000008151564
 21       0.000002292132
 22      -0.000000060228
 23       0.000000130487
 24      -0.000000625350
 25      -0.000000409448
 26       0.000000190305
 27      -0.000000946450
 28      -0.000000608505
 29       0.000000328148
 30      -0.000001941088
 31      -0.000000933462
 32       0.000000224798
 33      -0.000001044749
 34      -0.000000174717
 35       0.000000037499
 36       0.000000094178
 37       0.000000084762
 38       0.000000011576
 39      -0.000000140976
 40       0.000000028874
 41      -0.000000006205
 42       0.000000088737
 43      -0.000000011179
 44       0.000000013216
 45      -0.000000092412
 46      -0.000000074396
 47      -0.000000027875
 48       0.000000184496
 49       0.000000189822
 50       0.000000046239
 51      -0.000000444094
 52      -0.000000654152
 53      -0.000000184203
 54       0.000000911387
 55       0.000001804827
 56       0.000001540861
 57      -0.000002245456
 58      -0.000000030092
 59      -0.000000231782
 60       0.000000098182
 61       0.000001630962
 62      -0.000000148906
 63       0.000000094684
 64       0.000001329822
 65       0.000000350371
 66      -0.000001366801
 67       0.000000063584
 68      -0.000000123338
 69      -0.000002069621
 70      -0.000000432561
 71       0.000000206837
 72      -0.000000011554
 73       0.000000011902
 74       0.000000277565
 75       0.000000052140
 76      -0.000000152576
 77       0.000000004118
 78      -0.000000010960
 79      -0.000000233674
 80      -0.000000048520
 81      -0.000000095420
 82       0.000000014498
 83      -0.000000008883
 84      -0.000000078772
 85      -0.000000016123
 86       0.000000535297
 87      -0.000000053135
 88       0.000000046590
 89       0.000000621492
 90       0.000000134064
 91      -0.000000665675
 92       0.000000089887
 93      -0.000000058953
 94      -0.000000614922
 95      -0.000000142035
 96       0.000000123602
 97      -0.000000106223
 98       0.000000032398
 99      -0.000000463133
100      -0.000000046600
101       0.000003417606
102      -0.000000201371
103       0.000000349449
104       0.000005058074
105       0.000000871538
106      -0.000000693533
107       0.000000025919
108      -0.000000061487
109      -0.000001087203
110      -0.000000076278
111       0.000000063435
112      -0.000000030649
113      -0.000000004036
114       0.000000112787
115       0.000000017583
116      -0.000000036480
117       0.000000010618
118      -0.000000012317
119      -0.000000025624
120       0.000000001652
121       0.000000007996
122       0.000000006625
123      -0.000000025948
124      -0.000000023828
125      -0.000000024340
126       0.000000054775
127      -0.000000000199
128      -0.000000082854
129      -0.000000020560
130       0.000000059541
131       0.000000030642
132       0.000000061831
133      -0.000000071840
134      -0.000000002826
135       0.000000146084
136       0.000000032009
137      -0.000000083811
138      -0.000000034865
139      -0.000000092636
140       0.000000120244
141       0.000000016476
142      -0.000000230702
143      -0.000000049770
144       0.000000155604
145       0.000000048265
146      -0.000000178675
147      -0.000000174249
148      -0.000000084395
149      -0.000000055630
150      -0.000000003705
151      -0.000000306962
152      -0.000000047985
153       0.000000676021
154      -0.000000133943
155      -0.000000036519
156       0.000000997220
157       0.000000188125
158       0.000000064685
159       0.000000130918
160      -0.000000031038
161       0.000000153724
162      -0.000000314889
163       0.000001504469
164       0.000003627703
165       0.000010386579
166      -0.000000008654
167       0.000000105344
168       0.000000015392
169       0.000000124782
170      -0.000001094357
171       0.000000056108
172      -0.000000528986
173       0.000003563452
174      -0.000000078457
175       0.000000055271
176      -0.000000010155
177       0.000000035975
178       0.000000062087
179       0.000000012525
180       0.000000283626
181       0.000000002461
182       0.000000141816
183       0.000000608268
184       0.000000136902
185      -0.000000004693
186      -0.000000008180
187       0.000000063570
188      -0.000000008921
189      -0.000000003185
190       0.000000039638
191      -0.000000079179
192      -0.000000029710
193       0.000000148618
194      -0.000000307612
195       0.000001451615
196       0.000003312399
197       0.000008509894
198       0.000000007260
199      -0.000000131250
200       0.000000014868
201      -0.000000074182
202       0.000001117931
203       0.000000012892
204       0.000000127321
205      -0.000002994981
206       0.000000221393
207       0.000000046296
208      -0.000000003418
209      -0.000000020833
210       0.000000048308
211       0.000000009678
212       0.000000319459
213       0.000000024736
214      -0.000000105373
215       0.000000650208
216       0.000000116697
217      -0.000000003460
218       0.000000007417
219      -0.000000086668
220      -0.000000006951
221      -0.000000001614
222      -0.000000023487
223       0.000000115172
224      -0.000000016566
225       0.000000078479
226      -0.000000134297
227       0.000000105174
228      -0.000000088039
229       0.000001366865
230       0.000000079646
231      -0.000000050861
232       0.000000005455
233       0.000000126547
234       0.000000386883
235       0.000000048822
236       0.000000965238
237       0.000000124159
238       0.000000120687
239       0.000000002067
240       0.000000015431
241       0.000000007586
242       0.000000131364
243       0.000000045378
244      -0.000000154023
245       0.000000015694
246      -0.000000031792
247      -0.000000285751
248      -0.000000205071
249       0.000000065076
250       0.000000158731
251      -0.000000019904
252      -0.000000071781
253      -0.000000015746
254       0.000000131075
255       0.000000102909
256      -0.000000101320
257      -0.000000720367
258       0.000000768823
259      -0.000000323114
260       0.000000032198
261      -0.000000045559
 Sym=     1a
 Ene= -6.93381073456743E+02
 Spin= Alpha
 Occup= 1.000000
  1      -0.000000047879
  2      -0.000000039667
  3      -0.000000065217
  4      -0.000000116240
  5      -0.000000178729
  6      -0.000000238332
  7      -0.000000054696
  8       0.000000539566
  9       0.000000973033
 10      -0.000000303010
 11       0.000000267318
 12      -0.000000501097
 13       0.000000830690
 14      -0.000001141360
 15       0.000001260054
 16      -0.000001660245
 17       0.000005014896
 18      -0.000011720430
 19       0.000004720971
 20      -0.000006451898
 21       0.000000452179
 22      -0.030856534671
 23       0.177187258403
 24      -0.005373587239
 25      -0.052162927699
 26       0.299534822101
 27      -0.009084044396
 28      -0.078264869314
 29       0.449420373839
 30      -0.013629631140
 31      -0.040968491355
 32       0.235255078905
 33      -0.007134648539
 34      -0.001337588038
 35       0.007675969086
 36      -0.000232738982
 37      -0.000753402293
 38       0.004333104713
 39      -0.000131504754
 40       0.000523974611
 41      -0.003020510127
 42       0.000091774485
 43      -0.000328391283
 44       0.001905555864
 45      -0.000058077424
 46       0.000208645435
 47      -0.001232539978
 48       0.000037799111
 49      -0.000143223293
 50       0.000885011385
 51      -0.000027182503
 52       0.000103551389
 53      -0.000686009816
 54       0.000020637543
 55      -0.000080001265
 56       0.000621018027
 57      -0.000018000688
 58       0.000011641961
 59      -0.000026588957
 60       0.000001528273
 61       0.000000041331
 62      -0.000000152818
 63       0.000001064501
 64       0.000000094096
 65       0.000000488285
 66       0.000000147304
 67       0.000000024640
 68      -0.000000701004
 69      -0.000000030015
 70      -0.000000140995
 71      -0.000000038199
 72      -0.000000060425
 73       0.000000960680
 74       0.000000204381
 75       0.000000511384
 76       0.000000064520
 77       0.000000057995
 78      -0.000001564582
 79      -0.000000508870
 80      -0.000000615123
 81      -0.000000088518
 82      -0.000000083015
 83       0.000002749468
 84       0.000001037329
 85       0.000000982778
 86       0.000000160601
 87       0.000000158293
 88      -0.000005270459
 89      -0.000002033048
 90      -0.000001850147
 91      -0.000000741659
 92      -0.000000391916
 93       0.000011693286
 94       0.000003682810
 95       0.000003360648
 96       0.000002532529
 97       0.000001092374
 98      -0.000024716286
 99      -0.000004768121
100      -0.000004535628
101      -0.000002071805
102      -0.000002875981
103       0.000041958032
104       0.000005325978
105       0.000002773326
106       0.000002085935
107      -0.000000460321
108      -0.000005701100
109      -0.000003473461
110       0.000003337160
111      -0.000000030065
112       0.000000005592
113       0.000000055438
114       0.000000004532
115      -0.000000006234
116       0.000000068839
117      -0.000000283872
118      -0.000000133319
119      -0.000000184662
120       0.000001501728
121      -0.000000174680
122       0.000000029388
123       0.000000608210
124      -0.000002131570
125       0.000000345970
126       0.000000424581
127      -0.000003687403
128       0.000000429718
129      -0.000000071583
130      -0.000001549586
131       0.000005465655
132      -0.000000771693
133      -0.000000932948
134       0.000008193147
135      -0.000000930413
136       0.000000131656
137       0.000003427815
138      -0.000012084720
139       0.000001891862
140       0.000002496287
141      -0.000021360771
142       0.000002139908
143      -0.000000189416
144      -0.000008631072
145       0.000030447361
146      -0.000005179510
147      -0.000008067007
148       0.000070415990
149      -0.000005664075
150      -0.000000168279
151       0.000027490552
152      -0.000094985493
153       0.000005708513
154       0.000008468192
155      -0.000084878535
156       0.000006887183
157       0.000000764295
158      -0.000031828990
159       0.000110662880
160      -0.000001344269
161       0.000006102129
162      -0.000011082994
163       0.000049986273
164       0.000192919604
165       0.000373986361
166       0.000000821058
167      -0.000003182906
168      -0.000002187353
169       0.000004279431
170      -0.000066441659
171       0.000022829221
172      -0.000003417015
173       0.000061788207
174      -0.000033656693
175       0.000003254099
176      -0.000000111579
177       0.000000260121
178       0.000005150316
179       0.000001229726
180      -0.000000623790
181      -0.000000434433
182       0.000008337183
183       0.000002379236
184      -0.000000786306
185       0.000003576916
186       0.000001114222
187      -0.000011447506
188       0.000004341129
189       0.000000976486
190      -0.000004250759
191       0.000014191876
192       0.000001341581
193      -0.000006151584
194       0.000011392956
195      -0.000051923693
196      -0.000189037311
197      -0.000361421810
198      -0.000000250012
199      -0.000001958916
200       0.000002433125
201       0.000008673012
202      -0.000068471185
203      -0.000019117712
204      -0.000009988955
205       0.000063017402
206       0.000029807122
207      -0.000003110888
208       0.000000065831
209      -0.000000340559
210      -0.000004950571
211      -0.000000860022
212      -0.000001707548
213      -0.000000992132
214       0.000008699392
215      -0.000005195744
216      -0.000001529896
217      -0.000001686096
218       0.000001100758
219      -0.000010864618
220      -0.000002041086
221      -0.000000359435
222      -0.000004024180
223       0.000012965498
224       0.000000204552
225      -0.000000971641
226       0.000001859927
227      -0.000005824639
228      -0.000011774586
229      -0.000015098475
230      -0.000000453214
231       0.000000718046
232      -0.000000090770
233       0.000001666854
234      -0.000002429905
235       0.000000389121
236       0.000003626516
237       0.000001741555
238       0.000000626070
239       0.000000080193
240      -0.000000118718
241       0.000000167481
242      -0.000000769309
243       0.000000744183
244      -0.000001151433
245       0.000000833170
246      -0.000000870943
247       0.000003546616
248      -0.000004311799
249      -0.000000078957
250      -0.000000122514
251       0.000000126733
252       0.000000133959
253       0.000000060339
254      -0.000000777648
255       0.000000097950
256      -0.000000445263
257       0.000000210577
258       0.000013728105
259      -0.000000842496
260       0.000001134893
261      -0.000000398341
 Sym=     1a
 Ene= -6.93380587440984E+02
 Spin= Alpha
 Occup= 1.000000
  1      -0.000000096659
  2      -0.000000080500
  3      -0.000000134339
  4      -0.000000234712
  5      -0.000000382441
  6      -0.000000436250
  7      -0.000000155062
  8       0.000001523278
  9       0.000002219185
 10      -0.000001947878
 11       0.000000523574
 12      -0.000000540109
 13       0.000002299351
 14      -0.000005622512
 15       0.000014600698
 16      -0.000039004030
 17       0.000076253235
 18      -0.000133153137
 19       0.000163464572
 20      -0.000051572311
 21       0.000010317000
 22      -0.176444475724
 23      -0.031224404894
 24      -0.016396810070
 25      -0.298279158819
 26      -0.052784819826
 27      -0.027718823461
 28      -0.447534806616
 29      -0.079197862127
 30      -0.041588862771
 31      -0.234263536120
 32      -0.041456676527
 33      -0.021770099833
 34      -0.007655463410
 35      -0.001353889583
 36      -0.000710792938
 37      -0.004298644270
 38      -0.000761920736
 39      -0.000400663091
 40       0.002979993716
 41       0.000529418987
 42       0.000279007150
 43      -0.001850443179
 44      -0.000330937956
 45      -0.000175570651
 46       0.001145918345
 47       0.000208651141
 48       0.000112852530
 49      -0.000735143883
 50      -0.000139814722
 51      -0.000079736991
 52       0.000486471674
 53       0.000098468320
 54       0.000063351281
 55      -0.000346498359
 56      -0.000082665736
 57      -0.000060626287
 58       0.000043723054
 59       0.000005005836
 60       0.000001865888
 61      -0.000000277266
 62      -0.000000547512
 63      -0.000000127127
 64       0.000000048206
 65       0.000000146336
 66       0.000000645691
 67      -0.000000192650
 68       0.000000039075
 69      -0.000000941835
 70      -0.000000188884
 71      -0.000000862488
 72       0.000000441859
 73      -0.000000016939
 74       0.000001606684
 75       0.000000420063
 76       0.000001823985
 77      -0.000000905226
 78       0.000000001733
 79      -0.000003070621
 80      -0.000000842755
 81      -0.000003497205
 82       0.000001766071
 83       0.000000026718
 84       0.000005898903
 85       0.000001645152
 86       0.000006760038
 87      -0.000003598701
 88      -0.000000113583
 89      -0.000012174241
 90      -0.000003401045
 91      -0.000012979281
 92       0.000007790408
 93       0.000000500234
 94       0.000029260016
 95       0.000008087812
 96       0.000017217660
 97      -0.000013666823
 98      -0.000001631527
 99      -0.000062969150
100      -0.000016901758
101      -0.000034821489
102       0.000030075214