[Molden Format]
[Title]
 Molden file created by orca_2mkl for BaseName=/home/nikolayandreadi/cctask/UO2F2n_cc

[Atoms] AU
U    1  92          5.4254339661       -19.3073149027       -41.0063031054 
O    2   8          5.2183313202       -22.5356493306       -41.0457133439 
O    3   8          5.6407172365       -16.0794037735       -41.0350382810 
F    4   9          9.2308000484       -19.5512464213       -39.8980410888 
F    5   9          4.4315495135       -19.2752519194       -44.8507940776 
[GTO]
  1 0
s   9 1.0 
 58915269.2040619999     15878.5363952950
 26779667.8200279996     -5784.7557541551
 12172576.2818310000      9027.3946318877
  5532989.2190140001       325.6868040056
  2514995.0995519999      4208.1243710139
  1143179.5907050001      1939.1491289669
   519627.0866840000      2669.4311026285
   236194.1303110000      2005.5172738201
   107360.9683230000      2058.9530636601
s   1 1.0 
    48800.4401470000      2340.0648682401
s   1 1.0 
    22182.0182490000      1295.4208592531
s   1 1.0 
    10082.7355680000       717.1233692609
s   1 1.0 
     4583.0616220000       396.9875296292
s   1 1.0 
     2083.2098280000       219.7656713216
s   1 1.0 
      946.9135580000       121.6586080998
s   1 1.0 
      430.4152540000        67.3481752053
s   1 1.0 
      195.6432970000        37.2828258248
s   1 1.0 
       88.9287710000        20.6391501245
s   1 1.0 
       40.4221690000        11.4254891526
s   1 1.0 
       18.3737130000         6.3249600754
s   1 1.0 
        8.3516880000         3.5013924304
s   1 1.0 
        3.7962220000         1.9383124866
s   1 1.0 
        1.7255550000         1.0730172334
s   1 1.0 
        0.7843430000         0.5940043302
s   1 1.0 
        0.3565200000         0.3288311987
s   1 1.0 
        0.1620540000         0.1820350044
s   1 1.0 
        0.0736610000         0.1007716339
s   1 1.0 
        0.0334820000         0.0557851540
s   1 1.0 
        0.0152190000         0.0308815919
p   8 1.0 
   839813.6669700000    124700.6825327761
   349922.3612380000     10799.0830937165
   145800.9838490000     36359.2991195727
    60750.4099370000     18163.2607860982
    25312.6708070000     17573.6487977577
    10546.9461700000     14195.6918408552
     4394.5609040000     13322.9302572221
     1831.0670430000     12107.7084625556
p   1 1.0 
      762.9446010000      5715.5278197986
p   1 1.0 
      317.8935840000      1913.3406184205
p   1 1.0 
      132.4556600000       640.5134283167
p   1 1.0 
       55.1898580000       214.4194529751
p   1 1.0 
       22.9957740000        71.7794502225
p   1 1.0 
        9.5815730000        24.0290224861
p   1 1.0 
        3.9923220000         8.0439996005
p   1 1.0 
        1.6634670000         2.6928231053
p   1 1.0 
        0.6931110000         0.9014540144
p   1 1.0 
        0.2887960000         0.3017720791
p   1 1.0 
        0.1203320000         0.1010221266
p   1 1.0 
        0.0501380000         0.0338180721
d   7 1.0 
    41049.8202270000     53262.0337640016
    16419.9280910000     26338.4031025142
     6567.9712360000     29332.4246479962
     2627.1884950000     27101.6066256769
     1050.8753980000     28990.3214062957
      420.3501590000     26289.6282344813
      168.1400640000     17820.8132210096
d   1 1.0 
       67.2560250000      4502.9764563892
d   1 1.0 
       26.9024100000       905.9509006942
d   1 1.0 
       10.7609640000       182.2676717095
d   1 1.0 
        4.3043860000        36.6703201328
d   1 1.0 
        1.7217540000         7.3776748265
d   1 1.0 
        0.6887020000         1.4843111023
d   1 1.0 
        0.2754810000         0.2986279634
d   1 1.0 
        0.1101920000         0.0600803838
d   1 1.0 
        0.0440770000         0.0120876293
f   6 1.0 
     4391.9602590000     58042.2322349557
     1689.2154840000     50234.6786083959
      649.6982630000     55932.1636963999
      249.8839470000     54589.9728655915
       96.1092110000     39385.8448814677
       36.9650810000     15829.5183325708
f   1 1.0 
       14.2173390000      2237.9031973610
f   1 1.0 
        5.4682070000       260.7061095750
f   1 1.0 
        2.1031570000        30.3711607432
f   1 1.0 
        0.8089060000         3.5381049160
f   1 1.0 
        0.3111180000         0.4121749941
f   1 1.0 
        0.1196610000         0.0480168308

  2 0
s   6 1.0 
    27032.3826310000         1.4645050749
     4052.3871392000         1.8244031008
      922.3272271000         2.8547160967
      261.2407098900         4.3654874290
       85.3546413500         5.8940772662
       31.0350352400         6.2963020147
s   1 1.0 
       12.2608607300         4.6698272139
s   1 1.0 
        4.9987076000         2.3826123703
s   1 1.0 
        1.1703108200         0.8019291632
s   1 1.0 
        0.4647474100        -0.4011648063
s   1 1.0 
        0.1850453600         0.2010799377
p   4 1.0 
       63.2749548000         3.0898340730
       14.6270493800         3.3923831935
        4.4501223500         2.9482801524
        1.5275799600         1.7113350234
p   1 1.0 
        0.5293511800         0.6436057935
p   1 1.0 
        0.1747842100         0.1610897223
d   1 1.0 
        2.3140000000        12.3767310624
d   1 1.0 
        0.6450000000         1.3234257612
f   1 1.0 
        1.4280000000        12.7097950062

  3 0
s   6 1.0 
    27032.3826310000         1.4645050749
     4052.3871392000         1.8244031008
      922.3272271000         2.8547160967
      261.2407098900         4.3654874290
       85.3546413500         5.8940772662
       31.0350352400         6.2963020147
s   1 1.0 
       12.2608607300         4.6698272139
s   1 1.0 
        4.9987076000         2.3826123703
s   1 1.0 
        1.1703108200         0.8019291632
s   1 1.0 
        0.4647474100        -0.4011648063
s   1 1.0 
        0.1850453600         0.2010799377
p   4 1.0 
       63.2749548000         3.0898340730
       14.6270493800         3.3923831935
        4.4501223500         2.9482801524
        1.5275799600         1.7113350234
p   1 1.0 
        0.5293511800         0.6436057935
p   1 1.0 
        0.1747842100         0.1610897223
d   1 1.0 
        2.3140000000        12.3767310624
d   1 1.0 
        0.6450000000         1.3234257612
f   1 1.0 
        1.4280000000        12.7097950062

  4 0
s   6 1.0 
    35479.1004410000         1.9229128581
     5318.4728983000         2.2734773358
     1210.4810975000         3.4747482552
      342.8551814000         5.2879612972
      112.0194318100         7.1666332516
       40.7147402500         7.7556346254
s   1 1.0 
       16.0396781100         5.7122450312
s   1 1.0 
        6.5038186700         2.9025947842
s   1 1.0 
        1.5440477500         0.9872011154
s   1 1.0 
        0.6122345300        -0.4932856223
s   1 1.0 
        0.2402798000         0.2445952611
p   4 1.0 
       80.2339004800         4.2755032106
       18.5940107400         4.7314752302
        5.6867902700         4.0864798013
        1.9511006300         2.2989954518
p   1 1.0 
        0.6697021100         0.8635593126
p   1 1.0 
        0.2165130000         0.2105208234
d   1 1.0 
        3.1070000000        20.7284714039
d   1 1.0 
        0.8550000000         2.1672588463
f   1 1.0 
        1.9170000000        24.6547062912

  5 0
s   6 1.0 
    35479.1004410000         1.9229128581
     5318.4728983000         2.2734773358
     1210.4810975000         3.4747482552
      342.8551814000         5.2879612972
      112.0194318100         7.1666332516
       40.7147402500         7.7556346254
s   1 1.0 
       16.0396781100         5.7122450312
s   1 1.0 
        6.5038186700         2.9025947842
s   1 1.0 
        1.5440477500         0.9872011154
s   1 1.0 
        0.6122345300        -0.4932856223
s   1 1.0 
        0.2402798000         0.2445952611
p   4 1.0 
       80.2339004800         4.2755032106
       18.5940107400         4.7314752302
        5.6867902700         4.0864798013
        1.9511006300         2.2989954518
p   1 1.0 
        0.6697021100         0.8635593126
p   1 1.0 
        0.2165130000         0.2105208234
d   1 1.0 
        3.1070000000        20.7284714039
d   1 1.0 
        0.8550000000         2.1672588463
f   1 1.0 
        1.9170000000        24.6547062912

[5D]
[9G]
[MO]
 Sym=     1a
 Ene= -4.26061836643717E+03
 Spin= Alpha
 Occup= 2.000000
  1      -0.084983972360
  2      -0.065169465020
  3      -0.111711682542
  4      -0.177550144109
  5      -0.264431354333
  6      -0.303181740199
  7      -0.192924250619
  8      -0.032220565835
  9      -0.000869310350
 10       0.000612443398
 11      -0.000447711001
 12       0.000332677317
 13      -0.000237503401
 14       0.000161261443
 15      -0.000109037586
 16       0.000075252834
 17      -0.000052268806
 18       0.000032934094
 19      -0.000008655711
 20       0.000004204271
 21      -0.000001217586
 22       0.000000122104
 23      -0.000000008983
 24      -0.000000120179
 25      -0.000000017628
 26       0.000000001001
 27       0.000000018975
 28      -0.000000005082
 29       0.000000000335
 30       0.000000005940
 31      -0.000000004713
 32       0.000000000173
 33       0.000000004502
 34       0.000000007637
 35      -0.000000000273
 36      -0.000000007030
 37      -0.000000010739
 38       0.000000000311
 39       0.000000009631
 40       0.000000017386
 41      -0.000000000409
 42      -0.000000015622
 43      -0.000000022966
 44       0.000000000155
 45       0.000000019820
 46       0.000000026237
 47       0.000000000974
 48      -0.000000019613
 49      -0.000000002613
 50      -0.000000006337
 51      -0.000000014675
 52      -0.000000189434
 53       0.000000028879
 54       0.000000231480
 55       0.000000734945
 56      -0.000000107316
 57      -0.000000860155
 58      -0.000000187464
 59       0.000000015339
 60       0.000000194094
 61      -0.000000006473
 62      -0.000000010653
 63       0.000000000756
 64      -0.000000010587
 65       0.000000001422
 66       0.000000031065
 67       0.000000011957
 68      -0.000000000832
 69       0.000000052633
 70      -0.000000006891
 71       0.000000019913
 72      -0.000000029801
 73       0.000000001422
 74       0.000000036097
 75      -0.000000004855
 76      -0.000000056649
 77       0.000000041066
 78      -0.000000001621
 79      -0.000000100312
 80       0.000000013380
 81       0.000000122157
 82      -0.000000069420
 83       0.000000002485
 84       0.000000215150
 85      -0.000000028637
 86      -0.000000223619
 87       0.000000126882
 88      -0.000000004480
 89      -0.000000393850
 90       0.000000052448
 91       0.000000243494
 92      -0.000000221751
 93       0.000000008312
 94       0.000000435610
 95      -0.000000058596
 96       0.000000130080
 97       0.000000296679
 98      -0.000000013748
 99       0.000000199223
100      -0.000000024712
101      -0.000001569254
102       0.000000335764
103       0.000000005763
104      -0.000002739607
105       0.000000371418
106       0.000000304327
107      -0.000000152254
108       0.000000005169
109       0.000000538418
110      -0.000000071566
111       0.000000007725
112       0.000000006454
113      -0.000000000324
114      -0.000000003197
115       0.000000000460
116       0.000000004517
117      -0.000000000859
118      -0.000000022998
119      -0.000000019011
120       0.000000000951
121       0.000000009206
122      -0.000000001337
123      -0.000000013540
124       0.000000002545
125       0.000000048697
126       0.000000039756
127      -0.000000001996
128      -0.000000018849
129       0.000000002760
130       0.000000029148
131      -0.000000005448
132      -0.000000096693
133      -0.000000077877
134       0.000000003912
135       0.000000035984
136      -0.000000005306
137      -0.000000058728
138       0.000000010959
139       0.000000198947
140       0.000000154561
141      -0.000000007612
142      -0.000000065426
143       0.000000009780
144       0.000000123338
145      -0.000000023241
146      -0.000000403789
147      -0.000000282137
148       0.000000012951
149       0.000000081574
150      -0.000000012959
151      -0.000000256929
152       0.000000050428
153       0.000000054844
154      -0.000000051383
155       0.000000003324
156       0.000000128544
157      -0.000000017728
158       0.000000073531
159      -0.000000025938
160       0.000000019372
161      -0.000000091067
162       0.000000184680
163      -0.000000864714
164      -0.000002088801
165      -0.000005278993
166      -0.000000008028
167      -0.000000057667
168       0.000000002987
169       0.000000074571
170       0.000000653472
171      -0.000000022582
172      -0.000000204254
173      -0.000001921484
174       0.000000094841
175      -0.000000025742
176       0.000000011592
177       0.000000000994
178      -0.000000046554
179       0.000000003937
180      -0.000000195536
181      -0.000000033833
182      -0.000000005776
183      -0.000000326196
184       0.000000063515
185       0.000000007253
186      -0.000000000823
187      -0.000000035588
188       0.000000001898
189      -0.000000008142
190       0.000000016479
191       0.000000041657
192       0.000000019205
193      -0.000000090302
194       0.000000183216
195      -0.000000859253
196      -0.000002069565
197      -0.000005204216
198      -0.000000000045
199       0.000000058301
200       0.000000004362
201      -0.000000012149
202      -0.000000655174
203      -0.000000028772
204       0.000000038694
205       0.000001914586
206       0.000000091778
207      -0.000000026581
208       0.000000011151
209      -0.000000003129
210      -0.000000045830
211       0.000000007627
212      -0.000000192206
213      -0.000000031837
214       0.000000015846
215      -0.000000331064
216       0.000000024831
217       0.000000007744
218       0.000000003959
219       0.000000034664
220       0.000000004292
221       0.000000007127
222      -0.000000000708
223      -0.000000044925
224       0.000000009510
225      -0.000000041211
226       0.000000069276
227      -0.000000091487
228      -0.000000144074
229      -0.000000705641
230       0.000000000632
231      -0.000000000356
232       0.000000000013
233       0.000000196656
234      -0.000000011245
235       0.000000062101
236       0.000000524317
237      -0.000000039901
238       0.000000119052
239       0.000000000914
240      -0.000000016221
241       0.000000000926
242      -0.000000034333
243       0.000000004217
244       0.000000030924
245       0.000000003404
246       0.000000000080
247       0.000000026045
248      -0.000000002783
249       0.000000033911
250       0.000000031358
251      -0.000000002050
252      -0.000000046845
253       0.000000006009
254       0.000000065106
255      -0.000000012681
256       0.000000009737
257      -0.000000042227
258       0.000000071138
259      -0.000000096547
260      -0.000000158186
261      -0.000000738591
262      -0.000000000347
263       0.000000000084
264      -0.000000000869
265      -0.000000054810
266       0.000000001689
267      -0.000000198091
268      -0.000000111262
269       0.000000011684
270      -0.000000546497
271      -0.000000031159
272      -0.000000014986
273       0.000000000446
274      -0.000000016107
275       0.000000001909
276       0.000000006996
277       0.000000003713
278       0.000000000320
279       0.000000040071
280      -0.000000004934
281       0.000000075906
282       0.000000053592
283      -0.000000002032
284       0.000000012956
285      -0.000000001158
286      -0.000000001495
287       0.000000000002
 Sym=     1a
 Ene= -8.04571390362351E+02
 Spin= Alpha
 Occup= 2.000000
  1      -0.035877049011
  2      -0.029713835280
  3      -0.049764803049
  4      -0.086683085005
  5      -0.138726649701
  6      -0.177777391924
  7      -0.072230407325
  8       0.369140423759
  9       0.610967942747
 10       0.169951508678
 11      -0.002093365737
 12       0.001804396557
 13      -0.000969400125
 14       0.000504946792
 15      -0.000286818791
 16       0.000187545723
 17      -0.000127436989
 18       0.000079215867
 19      -0.000020907861
 20       0.000010105685
 21      -0.000002920294
 22       0.000000257740
 23      -0.000000012616
 24      -0.000000312893
 25       0.000000214237
 26      -0.000000006266
 27      -0.000000305479
 28       0.000000328223
 29      -0.000000002692
 30      -0.000000491953
 31       0.000000184588
 32      -0.000000005165
 33      -0.000000304108
 34       0.000000097613
 35      -0.000000009558
 36      -0.000000111050
 37       0.000000011892
 38       0.000000000055
 39      -0.000000017306
 40       0.000000064999
 41      -0.000000003690
 42      -0.000000059808
 43      -0.000000060887
 44       0.000000001308
 45       0.000000053449
 46       0.000000027507
 47       0.000000004350
 48      -0.000000011258
 49       0.000000018494
 50      -0.000000016206
 51      -0.000000059782
 52      -0.000000458321
 53       0.000000068482
 54       0.000000556794
 55       0.000001747699
 56      -0.000000255997
 57      -0.000002044217
 58      -0.000000446389
 59       0.000000036625
 60       0.000000462068
 61       0.000000907355
 62       0.000000713974
 63      -0.000000053312
 64       0.000001516129
 65      -0.000000201945
 66       0.000001720872
 67      -0.000000216370
 68       0.000000003258
 69       0.000002972458
 70      -0.000000390961
 71      -0.000000417069
 72      -0.000000054552
 73       0.000000004274
 74      -0.000000719184
 75       0.000000093767
 76       0.000000227277
 77       0.000000029025
 78      -0.000000001484
 79       0.000000389940
 80      -0.000000050632
 81       0.000000067322
 82      -0.000000090691
 83       0.000000002741
 84       0.000000123271
 85      -0.000000016989
 86      -0.000000462181
 87       0.000000279309
 88      -0.000000009831
 89      -0.000000815168
 90       0.000000108712
 91       0.000000457535
 92      -0.000000500140
 93       0.000000019068
 94       0.000000825391
 95      -0.000000111575
 96       0.000000343491
 97       0.000000680471
 98      -0.000000031806
 99       0.000000533824
100      -0.000000066836
101      -0.000003742551
102       0.000000809622
103       0.000000013110
104      -0.000006533248
105       0.000000885613
106       0.000000728589
107      -0.000000364902
108       0.000000012412
109       0.000001288892
110      -0.000000171316
111      -0.000000073728
112      -0.000000066947
113       0.000000003631
114       0.000000040385
115      -0.000000005351
116      -0.000000043884
117       0.000000009651
118      -0.000000050580
119      -0.000000041831
120       0.000000001864
121       0.000000018541
122      -0.000000002788
123      -0.000000026250
124       0.000000004529
125       0.000000137141
126       0.000000114310
127      -0.000000005588
128      -0.000000055014
129       0.000000007995
130       0.000000077588
131      -0.000000014413
132      -0.000000228208
133      -0.000000184080
134       0.000000009218
135       0.000000084511
136      -0.000000012472
137      -0.000000136756
138       0.000000025371
139       0.000000458685
140       0.000000355166
141      -0.000000017580
142      -0.000000148520
143       0.000000022248
144       0.000000283838
145      -0.000000053316
146      -0.000000943670
147      -0.000000659524
148       0.000000030623
149       0.000000190308
150      -0.000000030208
151      -0.000000599266
152       0.000000117257
153       0.000000120781
154      -0.000000127060
155       0.000000008234
156       0.000000305294
157      -0.000000042141
158       0.000000166717
159      -0.000000060059
160       0.000000040481
161      -0.000000199499
162       0.000000409177
163      -0.000001993313
164      -0.000004930223
165      -0.000012553052
166      -0.000000018052
167      -0.000000119158
168       0.000000007459
169       0.000000172982
170       0.000001529804
171      -0.000000051604
172      -0.000000482878
173      -0.000004581484
174       0.000000221941
175      -0.000000067901
176       0.000000027244
177       0.000000002507
178      -0.000000122104
179       0.000000010983
180      -0.000000440667
181      -0.000000079578
182      -0.000000013520
183      -0.000000734292
184       0.000000144266
185       0.000000017607
186      -0.000000000446
187      -0.000000059609
188       0.000000005347
189      -0.000000018985
190       0.000000032717
191       0.000000067433
192       0.000000040109
193      -0.000000197744
194       0.000000405756
195      -0.000001980494
196      -0.000004885105
197      -0.000012374082
198      -0.000000001445
199       0.000000120715
200       0.000000010592
201      -0.000000030024
202      -0.000001534063
203      -0.000000066046
204       0.000000096429
205       0.000004564150
206       0.000000214688
207      -0.000000069862
208       0.000000026198
209      -0.000000007410
210      -0.000000120420
211       0.000000019543
212      -0.000000432906
213      -0.000000074918
214       0.000000036917
215      -0.000000745625
216       0.000000054835
217       0.000000018564
218       0.000000007650
219       0.000000057451
220       0.000000010655
221       0.000000016421
222       0.000000004430
223      -0.000000075096
224       0.000000020945
225      -0.000000097628
226       0.000000166779
227      -0.000000228901
228      -0.000000350009
229      -0.000001665058
230       0.000000005368
231      -0.000000001094
232       0.000000001321
233       0.000000449364
234      -0.000000025586
235       0.000000142971
236       0.000001239048
237      -0.000000094293
238       0.000000280857
239       0.000000004796
240      -0.000000040921
241       0.000000002360
242      -0.000000085493
243       0.000000010538
244       0.000000064142
245       0.000000017449
246      -0.000000000421
247       0.000000078120
248      -0.000000008734
249       0.000000082924
250       0.000000077088
251      -0.000000005036
252      -0.000000114223
253       0.000000014657
254       0.000000158652
255      -0.000000030900
256       0.000000021418
257      -0.000000099828
258       0.000000170908
259      -0.000000240315
260      -0.000000382336
261      -0.000001741935
262      -0.000000001984
263       0.000000000285
264      -0.000000005943
265      -0.000000126257
266       0.000000003843
267      -0.000000452902
268      -0.000000262391
269       0.000000027574
270      -0.000001291335
271      -0.000000078865
272      -0.000000037746
273       0.000000001181
274      -0.000000037890
275       0.000000004485
276       0.000000035801
277       0.000000017211
278       0.000000000347
279       0.000000095003
280      -0.000000011671
281       0.000000185356
282       0.000000130754
283      -0.000000004964
284       0.000000031021
285      -0.000000002746
286      -0.000000003481
287      -0.000000000007
 Sym=     1a
 Ene= -6.75228037302068E+02
 Spin= Alpha
 Occup= 2.000000
  1      -0.000000010548
  2      -0.000000008789
  3      -0.000000014528
  4      -0.000000025963
  5      -0.000000040156
  6      -0.000000055207
  7      -0.000000014602
  8       0.000000112971
  9       0.000000195096
 10       0.000000003734
 11       0.000000035258
 12      -0.000000084327
 13       0.000000114017
 14      -0.000000143006
 15       0.000000125507
 16       0.000000027974
 17      -0.000000093565
 18       0.000000380121
 19      -0.000003874250
 20       0.000001130939
 21      -0.000000254457
 22       0.124161576364
 23      -0.008354987077
 24       0.127468417476
 25       0.211358813239
 26      -0.014222598427
 27       0.216988011640
 28       0.318503349663
 29      -0.021432487324
 30       0.326986170634
 31       0.167532747162
 32      -0.011273497162
 33       0.171994710858
 34       0.005617517322
 35      -0.000378001654
 36       0.005767110128
 37       0.003055150396
 38      -0.000205603668
 39       0.003136561494
 40      -0.002120777908
 41       0.000142746814
 42      -0.002177327845
 43       0.001314019134
 44      -0.000088496705
 45       0.001349128533
 46      -0.000808406495
 47       0.000054578845
 48      -0.000830138057
 49       0.000507997167
 50      -0.000034741346
 51       0.000521892911
 52      -0.000315238270
 53       0.000022116851
 54      -0.000324238705
 55       0.000182099125
 56      -0.000010553473
 57       0.000187816823
 58      -0.000035228389
 59       0.000002121767
 60      -0.000036074037
 61      -0.000000954808
 62      -0.000000017448
 63       0.000000000755
 64       0.000000533505
 65      -0.000000066106
 66       0.000000715373
 67      -0.000000039637
 68       0.000000011534
 69      -0.000000425530
 70       0.000000048961
 71      -0.000001622872
 72       0.000000055802
 73      -0.000000025087
 74       0.000000981995
 75      -0.000000129091
 76       0.000002777369
 77      -0.000000097594
 78       0.000000046344
 79      -0.000001671852
 80       0.000000223132
 81      -0.000005151573
 82       0.000000180215
 83      -0.000000087769
 84       0.000003099284
 85      -0.000000417025
 86       0.000010283440
 87      -0.000000358153
 88       0.000000176343
 89      -0.000006178612
 90       0.000000833471
 91      -0.000021196768
 92       0.000000734943
 93      -0.000000375558
 94       0.000012648720
 95      -0.000001706976
 96       0.000033860328
 97      -0.000001139966
 98       0.000000663504
 99      -0.000019834326
100       0.000002698807
101      -0.000043477017
102       0.000001254441
103      -0.000001205915
104       0.000026699134
105      -0.000003798763
106       0.000006615923
107      -0.000000228002
108       0.000000079979
109      -0.000003997518
110       0.000000527541
111       0.000000783443
112       0.000000473831
113      -0.000000034432
114       0.000001198135
115      -0.000000160382
116      -0.000001299728
117       0.000000260189
118      -0.000000614662
119      -0.000000362822
120       0.000000013342
121      -0.000000934419
122       0.000000118781
123       0.000001022541
124      -0.000000199947
125       0.000000618998
126       0.000000410987
127       0.000000006791
128       0.000001003180
129      -0.000000116434
130      -0.000001075070
131       0.000000200807
132      -0.000000873698
133      -0.000000701721
134      -0.000000037164
135      -0.000001570902
136       0.000000168318
137       0.000001620105
138      -0.000000287374
139       0.000001914937
140       0.000001502145
141       0.000000141032
142       0.000003399912
143      -0.000000352194
144      -0.000003550768
145       0.000000577991
146      -0.000002902604
147      -0.000002396490
148      -0.000000707188
149      -0.000005287809
150       0.000000496890
151       0.000005685756
152      -0.000000405461
153       0.000000340255
154       0.000000214116
155       0.000000612704
156       0.000000364553
157       0.000000187086
158      -0.000001039039
159       0.000000091566
160      -0.000000008423
161       0.000000035958
162      -0.000000056070
163       0.000000094661
164       0.000000419134
165       0.000003448912
166      -0.000000773704
167      -0.000000020063
168      -0.000000864962
169       0.000004305843
170       0.000000042147
171       0.000004692409
172      -0.000012083196
173       0.000001947486
174      -0.000013352141
175      -0.000000130544
176       0.000000023649
177       0.000000078316
178       0.000000152057
179       0.000000095661
180       0.000000360203
181       0.000000142086
182       0.000002542150
183      -0.000000140261
184       0.000002372906
185      -0.000000085891
186      -0.000000026475
187      -0.000000600019
188      -0.000000079912
189       0.000000006577
190      -0.000000000300
191      -0.000000288695
192      -0.000000013074
193       0.000000059865
194      -0.000000109326
195       0.000000435851
196       0.000001598811
197       0.000001977562
198      -0.000000760229
199       0.000000044850
200      -0.000000796082
201       0.000004285920
202       0.000000362866
203       0.000004427376
204      -0.000011951916
205       0.000000503294
206      -0.000012617087
207      -0.000000132215
208       0.000000001627
209      -0.000000120196
210       0.000000110865
211      -0.000000128152
212       0.000000471597
213      -0.000000160344
214      -0.000002386975
215      -0.000000520708
216      -0.000002289366
217      -0.000000062808
218       0.000000043858
219       0.000000577402
220      -0.000000042659
221      -0.000000020219
222       0.000000097214
223       0.000000243158
224       0.000001274015
225      -0.000006015194
226       0.000011300461
227      -0.000028329753
228      -0.000043521881
229      -0.000055014538
230       0.000006836630
231      -0.000000432925
232       0.000001862265
233      -0.000022046908
234       0.000001388658
235      -0.000006545576
236       0.000014211957
237      -0.000000783698
238       0.000005144697
239       0.000002101282
240      -0.000001912601
241       0.000000127101
242      -0.000004132259
243       0.000000543117
244      -0.000007525718
245       0.000007519101
246      -0.000000495853
247       0.000015064675
248      -0.000001974296
249       0.000000928625
250       0.000001547826
251      -0.000000101363
252      -0.000001235151
253       0.000000159400
254       0.000002357976
255      -0.000000462698
256      -0.000001270088
257       0.000005996479
258      -0.000011264721
259       0.000028240351
260       0.000043480640
261       0.000055198042
262       0.000001631860
263      -0.000000073935
264       0.000006855760
265      -0.000005796372
266       0.000000283319
267      -0.000022103517
268       0.000004597794
269      -0.000000510800
270       0.000014484189
271       0.000004729614
272       0.000001662167
273      -0.000000044683
274       0.000000212498
275      -0.000000015308
276      -0.000017188977
277      -0.000006613374
278       0.000000194164
279      -0.000000873456
280       0.000000063239
281      -0.000002945854
282      -0.000001334797
283       0.000000034640
284      -0.000000166193
285       0.000000008710
286       0.000000021838
287      -0.000000000635
 Sym=     1a