[Molden Format]
[Title]
 Molden file created by orca_2mkl for BaseName=/home/nikolayandreadi/elements/Np

[Atoms] AU
Np   1  93          0.0000000000         0.0000000000         0.0000000000 
[GTO]
  1 0
s   9 1.0 
 60212393.7825810015     16460.1280594584
 27369269.9011729993     -6013.5086094560
 12440577.2278060000      9343.9211279925
  5654807.8308210000       308.3663916485
  2570367.1958280001      4334.3325603517
  1168348.7253759999      1972.8827387435
   531067.6024440000      2728.3967901233
   241394.3647470000      2034.2792369220
   109724.7112490000      2086.3436128711
s   1 1.0 
    49874.8687490000      2378.6000111367
s   1 1.0 
    22670.3948860000      1316.7532712607
s   1 1.0 
    10304.7249480000       728.9326365214
s   1 1.0 
     4683.9658860000       403.5249429308
s   1 1.0 
     2129.0754030000       223.3846742626
s   1 1.0 
      967.7615470000       123.6620277677
s   1 1.0 
      439.8916120000        68.4572348252
s   1 1.0 
      199.9507330000        37.8967827997
s   1 1.0 
       90.8866970000        20.9790265547
s   1 1.0 
       41.3121350000        11.6136389953
s   1 1.0 
       18.7782430000         6.4291166887
s   1 1.0 
        8.5355650000         3.5590517075
s   1 1.0 
        3.8798020000         1.9702315267
s   1 1.0 
        1.7635460000         1.0906871246
s   1 1.0 
        0.8016120000         0.6037862931
s   1 1.0 
        0.3643690000         0.3342459531
s   1 1.0 
        0.1656220000         0.1850327531
s   1 1.0 
        0.0752830000         0.1024313225
s   1 1.0 
        0.0342190000         0.0567035929
s   1 1.0 
        0.0155540000         0.0313900251
p   8 1.0 
   859302.8310040000    131775.7051530663
   358042.8462520000     11325.8407160590
   149184.5192720000     38266.0812549783
    62160.2163630000     19009.8155098714
    25900.0901510000     18342.5702252260
    10791.7042300000     14732.4699955005
     4496.5434290000     13756.3118120073
     1873.5597620000     12431.3284313481
p   1 1.0 
      780.6499010000      5881.8029941886
p   1 1.0 
      325.2707920000      1969.0031994381
p   1 1.0 
      135.5294970000       659.1471384521
p   1 1.0 
       56.4706240000       220.6573109288
p   1 1.0 
       23.5294270000        73.8676489948
p   1 1.0 
        9.8039280000        24.7280704473
p   1 1.0 
        4.0849700000         8.2780143929
p   1 1.0 
        1.7020710000         2.7711636791
p   1 1.0 
        0.7091960000         0.9276794468
p   1 1.0 
        0.2954980000         0.3105512418
p   1 1.0 
        0.1231240000         0.1039605296
p   1 1.0 
        0.0513020000         0.0348023010
d   7 1.0 
    42129.4422870000     56906.5227948507
    16851.7769150000     28000.6591442440
     6740.7107660000     31059.1451506409
     2696.2843060000     28550.8495479176
     1078.5137230000     30419.9475915360
      431.4054890000     27516.9214778059
      172.5621960000     18646.3556919396
d   1 1.0 
       69.0248780000      4712.2678372904
d   1 1.0 
       27.6099510000       948.0580852984
d   1 1.0 
       11.0439810000       190.7392068921
d   1 1.0 
        4.4175920000        38.3746907348
d   1 1.0 
        1.7670370000         7.7205805666
d   1 1.0 
        0.7068150000         1.5532993453
d   1 1.0 
        0.2827260000         0.3125072837
d   1 1.0 
        0.1130900000         0.0628727477
d   1 1.0 
        0.0452360000         0.0126493272
f   6 1.0 
     4574.1842730000     62886.0548377263
     1759.3016440000     54541.2436081452
      676.6544780000     60258.2175061621
      260.2517220000     58997.4055482529
      100.0968160000     42811.8352412536
       38.4987760000     17381.1576470009
f   1 1.0 
       14.8072210000      2452.2547560014
f   1 1.0 
        5.6950850000       285.6771815775
f   1 1.0 
        2.1904170000        33.2801582217
f   1 1.0 
        0.8424680000         3.8769951722
f   1 1.0 
        0.3240260000         0.4516528586
f   1 1.0 
        0.1246250000         0.0526152593

[5D]
[9G]
[MO]
 Sym=     1a
 Ene= -4.37329756005431E+03
 Spin= Alpha
 Occup= 1.000000
  1      -0.087306466091
  2      -0.066328227568
  3      -0.113242638869
  4      -0.178787948432
  5      -0.264676511569
  6      -0.301328175630
  7      -0.190680551383
  8      -0.031596666369
  9      -0.000892764451
 10       0.000633923666
 11      -0.000461781266
 12       0.000340790596
 13      -0.000241748828
 14       0.000162582047
 15      -0.000107511945
 16       0.000070692828
 17      -0.000045588825
 18       0.000028196690
 19      -0.000015932904
 20       0.000007296829
 21      -0.000001965701
 22      -0.000000000116
 23       0.000000000040
 24       0.000000000079
 25       0.000000000332
 26      -0.000000000074
 27      -0.000000000193
 28      -0.000000000030
 29      -0.000000000015
 30      -0.000000000010
 31       0.000000000064
 32      -0.000000000014
 33      -0.000000000036
 34      -0.000000000046
 35       0.000000000007
 36       0.000000000022
 37       0.000000000030
 38       0.000000000001
 39      -0.000000000008
 40      -0.000000000026
 41       0.000000000004
 42       0.000000000012
 43       0.000000000014
 44      -0.000000000004
 45      -0.000000000009
 46      -0.000000000003
 47       0.000000000000
 48       0.000000000001
 49       0.000000000003
 50      -0.000000000000
 51      -0.000000000001
 52      -0.000000000004
 53       0.000000000001
 54       0.000000000003
 55       0.000000000001
 56      -0.000000000000
 57      -0.000000000000
 58      -0.000000000001
 59       0.000000000000
 60       0.000000000000
 61       0.000000000546
 62      -0.000000003558
 63      -0.000000004759
 64      -0.000000000461
 65      -0.000000004003
 66      -0.000000002855
 67       0.000000007801
 68       0.000000013621
 69       0.000000004458
 70       0.000000012286
 71       0.000000001076
 72      -0.000000008166
 73      -0.000000008182
 74      -0.000000000439
 75      -0.000000008901
 76      -0.000000000944
 77       0.000000004200
 78       0.000000005415
 79       0.000000001087
 80       0.000000005387
 81       0.000000000614
 82      -0.000000001613
 83      -0.000000002887
 84      -0.000000000973
 85      -0.000000002580
 86      -0.000000000107
 87       0.000000001038
 88       0.000000000989
 89      -0.000000000005
 90       0.000000001063
 91       0.000000000196
 92      -0.000000000728
 93      -0.000000001038
 94      -0.000000000261
 95      -0.000000001002
 96      -0.000000000080
 97       0.000000000400
 98       0.000000000484
 99       0.000000000080
100       0.000000000492
101       0.000000000037
102      -0.000000000157
103      -0.000000000209
104      -0.000000000044
105      -0.000000000203
106      -0.000000000013
107       0.000000000056
108       0.000000000073
109       0.000000000015
110       0.000000000072
111       0.000000000006
112       0.000000000001
113      -0.000000000002
114      -0.000000000006
115       0.000000000006
116      -0.000000000004
117       0.000000000005
118      -0.000000000010
119      -0.000000000003
120       0.000000000006
121       0.000000000008
122      -0.000000000012
123       0.000000000007
124      -0.000000000008
125       0.000000000008
126       0.000000000002
127      -0.000000000005
128      -0.000000000007
129       0.000000000011
130      -0.000000000006
131       0.000000000006
132      -0.000000000003
133      -0.000000000001
134       0.000000000002
135       0.000000000003
136      -0.000000000004
137       0.000000000002
138      -0.000000000002
139       0.000000000001
140       0.000000000000
141      -0.000000000000
142      -0.000000000001
143       0.000000000001
144      -0.000000000000
145       0.000000000000
146      -0.000000000001
147      -0.000000000000
148       0.000000000001
149       0.000000000001
150      -0.000000000001
151       0.000000000001
152      -0.000000000001
153       0.000000000000
154       0.000000000000
155      -0.000000000000
156      -0.000000000000
157       0.000000000000
158      -0.000000000000
159       0.000000000000
 Sym=     1a
 Ene= -8.28943301238709E+02
 Spin= Alpha
 Occup= 1.000000
  1      -0.037062057277
  2      -0.030426109007
  3      -0.050706574613
  4      -0.087784737662
  5      -0.139378671551
  6      -0.176536613193
  7      -0.067158154451
  8       0.374936272254
  9       0.607147748050
 10       0.165172296177
 11      -0.001949801029
 12       0.001579342549
 13      -0.000811788006
 14       0.000398231616
 15      -0.000211288161
 16       0.000129689915
 17      -0.000081402458
 18       0.000049330057
 19      -0.000027692823
 20       0.000012641833
 21      -0.000003400825
 22      -0.000000005701
 23       0.000000001164
 24       0.000000003244
 25      -0.000000009526
 26       0.000000001815
 27       0.000000005260
 28      -0.000000014700
 29       0.000000003514
 30       0.000000009025
 31      -0.000000008477
 32       0.000000001115
 33       0.000000004173
 34      -0.000000000592
 35      -0.000000000230
 36      -0.000000000071
 37      -0.000000000286
 38       0.000000000295
 39       0.000000000449
 40      -0.000000000022
 41      -0.000000000071
 42      -0.000000000082
 43       0.000000000013
 44      -0.000000000002
 45      -0.000000000007
 46       0.000000000111
 47      -0.000000000044
 48      -0.000000000085
 49      -0.000000000038
 50       0.000000000028
 51       0.000000000044
 52      -0.000000000028
 53       0.000000000007
 54       0.000000000018
 55      -0.000000000011
 56       0.000000000004
 57       0.000000000007
 58      -0.000000000004
 59       0.000000000001
 60       0.000000000003
 61      -0.000000053651
 62      -0.000000201323
 63       0.000000147710
 64       0.000000178058
 65      -0.000000052819
 66      -0.000000078076
 67       0.000000068104
 68       0.000000277595
 69       0.000000154366
 70       0.000000218573
 71       0.000000008472
 72       0.000000006759
 73      -0.000000025868
 74      -0.000000019987
 75      -0.000000015119
 76      -0.000000013393
 77       0.000000003975
 78       0.000000042644
 79       0.000000028004
 80       0.000000032346
 81       0.000000010222
 82       0.000000003250
 83      -0.000000028544
 84      -0.000000022906
 85      -0.000000018868
 86      -0.000000000060
 87      -0.000000002772
 88      -0.000000001124
 89       0.000000000699
 90      -0.000000001948
 91       0.000000002839
 92      -0.000000000756
 93      -0.000000008966
 94      -0.000000005983
 95      -0.000000006727
 96      -0.000000001124
 97       0.000000001626
 98       0.000000004240
 99       0.000000002020
100       0.000000003752
101       0.000000000468
102       0.000000000229
103      -0.000000001295
104      -0.000000001066
105      -0.000000000821
106      -0.000000000169
107       0.000000000026
108       0.000000000520
109       0.000000000357
110       0.000000000385
111      -0.000000000164
112      -0.000000000049
113      -0.000000000144
114       0.000000000314
115       0.000000000024
116       0.000000000079
117      -0.000000000258
118      -0.000000000076
119      -0.000000000014
120       0.000000000179
121      -0.000000000036
122      -0.000000000228
123       0.000000000071
124       0.000000000020
125       0.000000000118
126       0.000000000027
127      -0.000000000146
128      -0.000000000042
129       0.000000000225
130      -0.000000000093
131       0.000000000044
132      -0.000000000031
133      -0.000000000006
134       0.000000000059
135      -0.000000000005
136      -0.000000000078
137       0.000000000028
138       0.000000000001
139      -0.000000000006
140      -0.000000000002
141      -0.000000000014
142       0.000000000019
143       0.000000000010
144       0.000000000002
145      -0.000000000015
146      -0.000000000013
147      -0.000000000003
148       0.000000000017
149       0.000000000004
150      -0.000000000025
151       0.000000000010
152      -0.000000000004
153       0.000000000001
154       0.000000000000
155      -0.000000000003
156       0.000000000002
157       0.000000000004
158      -0.000000000001
159      -0.000000000001
 Sym=     1a
 Ene= -6.93271755720387E+02
 Spin= Alpha
 Occup= 1.000000
  1      -0.000000001316
  2      -0.000000001081
  3      -0.000000001802
  4      -0.000000003119
  5      -0.000000004943
  6      -0.000000006220
  7      -0.000000002688
  8       0.000000012330
  9       0.000000022139
 10       0.000000010159
 11      -0.000000000471
 12      -0.000000001889
 13      -0.000000000097
 14       0.000000000909
 15      -0.000000000194
 16      -0.000000000035
 17      -0.000000000211
 18       0.000000000149
 19      -0.000000000047
 20       0.000000000051
 21      -0.000000000013
 22       0.144526630664
 23      -0.047863644906
 24      -0.095907226299
 25       0.244321997494
 26      -0.080913397172
 27      -0.162130981475
 28       0.366578851493
 29      -0.121401902606
 30      -0.243260140570
 31       0.191875459176
 32      -0.063544404549
 33      -0.127327705444
 34       0.006273148181
 35      -0.002077453423
 36      -0.004162776867
 37       0.003514528866
 38      -0.001163931154
 39      -0.002332222371
 40      -0.002426672587
 41       0.000803674125
 42       0.001610348679
 43       0.001490088209
 44      -0.000493494115
 45      -0.000988831600
 46      -0.000894757851
 47       0.000296319760
 48       0.000593754396
 49       0.000529929460
 50      -0.000175499359
 51      -0.000351657750
 52      -0.000296375467
 53       0.000098155747
 54       0.000196677359
 55       0.000143270585
 56      -0.000047447086
 57      -0.000095072873
 58      -0.000044857312
 59       0.000014855992
 60       0.000029767484
 61       0.000000000946
 62       0.000000006425
 63      -0.000000002740
 64      -0.000000005010
 65       0.000000002655
 66       0.000000000245
 67      -0.000000001748
 68       0.000000001774
 69       0.000000000593
 70      -0.000000001156
 71       0.000000000286
 72       0.000000002052
 73      -0.000000001345
 74      -0.000000001467
 75       0.000000001005
 76      -0.000000000076
 77      -0.000000001109
 78       0.000000000767
 79       0.000000000694
 80      -0.000000000585
 81      -0.000000000015
 82       0.000000000427
 83      -0.000000000334
 84      -0.000000000227
 85       0.000000000220
 86      -0.000000000038
 87      -0.000000000207
 88       0.000000000144
 89       0.000000000179
 90      -0.000000000065
 91       0.000000000007
 92       0.000000000192
 93      -0.000000000139
 94      -0.000000000108
 95       0.000000000112
 96      -0.000000000011
 97      -0.000000000101
 98       0.000000000066
 99       0.000000000069
100      -0.000000000051
101      -0.000000000000
102       0.000000000015
103      -0.000000000019
104      -0.000000000011
105       0.000000000004
106      -0.000000000001
107      -0.000000000014
108       0.000000000010
109       0.000000000009
110      -0.000000000007
111       0.000000141168
112      -0.000000060415
113      -0.000000245860
114      -0.000000046953
115       0.000000236944
116      -0.000000208263
117      -0.000000035732
118      -0.000000295903
119      -0.000000003515
120       0.000000304692
121       0.000000194788
122      -0.000000420612
123       0.000000289245
124      -0.000000105064
125       0.000000262532
126       0.000000018916
127      -0.000000247740
128      -0.000000183187
129       0.000000367231
130      -0.000000239127
131       0.000000114433
132      -0.000000085546
133       0.000000000253
134       0.000000088999
135       0.000000056485
136      -0.000000121879
137       0.000000084990
138      -0.000000029427
139       0.000000010433
140      -0.000000006017
141      -0.000000017855
142      -0.000000003822
143       0.000000015820
144      -0.000000016743
145      -0.000000003729
146      -0.000000033639
147      -0.000000002515
148       0.000000031958
149       0.000000023323
150      -0.000000047363
151       0.000000030575
152      -0.000000014720
153       0.000000002788
154      -0.000000000801
155      -0.000000003843
156      -0.000000001410
157       0.000000004100
158      -0.000000003613
159      -0.000000000012
 Sym=     1a
 Ene= -6.93271489272201E+02
 Spin= Alpha
 Occup= 1.000000
  1      -0.000000000062
  2      -0.000000000050
  3      -0.000000000085
  4      -0.000000000144
  5      -0.000000000238
  6      -0.000000000279
  7      -0.000000000157
  8       0.000000000667
  9       0.000000001185
 10       0.000000000063
 11      -0.000000000057
 12       0.000000000026
 13      -0.000000000013
 14       0.000000000011
 15      -0.000000000013
 16       0.000000000012
 17      -0.000000000013
 18       0.000000000012
 19      -0.000000000009
 20       0.000000000004
 21      -0.000000000001
 22      -0.021459959399
 23       0.144819608955
 24      -0.104612869207
 25      -0.036278015873
 26       0.244817266796
 27      -0.176847848237
 28      -0.054431334343
 29       0.367322031847
 30      -0.265341284205
 31      -0.028490471019
 32       0.192263963051
 33      -0.138885124366
 34      -0.000931373091
 35       0.006285603552
 36      -0.004540457093
 37      -0.000521872479
 38       0.003521816741
 39      -0.002544023420
 40       0.000360353347
 41      -0.002431661892
 42       0.001756572380
 43      -0.000221274589
 44       0.001493135999
 45      -0.001078611685
 46       0.000132856647
 47      -0.000896589303
 48       0.000647660553
 49      -0.000078686669
 50       0.000531014823
 51      -0.000383584637
 52       0.000044012345
 53      -0.000296984106
 54       0.000214536499
 55      -0.000021272902
 56       0.000143563902
 57      -0.000103704266
 58       0.000006661142
 59      -0.000044949242
 60       0.000032470273
 61      -0.000000002873
 62       0.000000002446
 63       0.000000001826
 64      -0.000000000129
 65      -0.000000004129
 66      -0.000000000503
 67       0.000000000789
 68      -0.000000000031
 69       0.000000000211
 70      -0.000000001123
 71       0.000000000516
 72      -0.000000000677
 73      -0.000000000026
 74       0.000000000214
 75       0.000000000664
 76      -0.000000000189
 77       0.000000000258
 78      -0.000000000047
 79      -0.000000000030
 80      -0.000000000283
 81      -0.000000000097
 82       0.000000000043
 83       0.000000000096
 84      -0.000000000064
 85      -0.000000000064
 86       0.000000000074
 87      -0.000000000024
 88      -0.000000000041
 89       0.000000000001
 90       0.000000000080
 91       0.000000000052
 92      -0.000000000057
 93       0.000000000003
 94       0.000000000005
 95       0.000000000072
 96      -0.000000000016
 97       0.000000000021
 98      -0.000000000004
 99      -0.000000000006
100      -0.000000000021
101      -0.000000000010
102       0.000000000005
103       0.000000000006
104      -0.000000000004
105      -0.000000000009
106      -0.000000000004
107       0.000000000004
108      -0.000000000000
109      -0.000000000001
110      -0.000000000005
111      -0.000000003647
112      -0.000000173336
113      -0.000000044471
114      -0.000000072751
115       0.000000014639
116       0.000000164189
117       0.000000028165
118      -0.000000120741
119       0.000000279097
120      -0.000000171546
121      -0.000000239331
122      -0.000000143989
123      -0.000000109233
124      -0.000000189501
125       0.000000125181
126      -0.000000243967
127       0.000000188090
128       0.000000265670
129       0.000000145826
130       0.000000070370
131       0.000000189026
132      -0.000000034307
133       0.000000082550
134      -0.000000048438
135      -0.000000067770
136      -0.000000042054
137      -0.000000033081
138      -0.000000055444
139      -0.000000002583
140      -0.000000010528
141      -0.000000007329
142      -0.000000011371
143      -0.000000001701
144       0.000000013009
145      -0.000000000989
146      -0.000000016450
147       0.000000032112
148      -0.000000024832
149      -0.000000035239
150      -0.000000019426
151      -0.000000009051
152      -0.000000025080
153       0.000000000260
154      -0.000000002795
155      -0.000000000119
156      -0.000000000304
157       0.000000000503
158       0.000000002258
159       0.000000000833
 Sym=     1a
 Ene= -6.93271395503022E+02
 Spin= Alpha
 Occup= 1.000000
  1       0.000000000173
  2       0.000000000141
  3       0.000000000239
  4       0.000000000399
  5       0.000000000669
  6       0.000000000739
  7       0.000000000635
  8      -0.000000001798
  9      -0.000000004715
 10       0.000000001663
 11       0.000000000205
 12      -0.000000000540
 13       0.000000000010
 14       0.000000000174
 15       0.000000000010
 16      -0.000000000068
 17       0.000000000028
 18      -0.000000000043
 19       0.000000000042
 20      -0.000000000016
 21       0.000000000004
 22      -0.105017252975
 23      -0.095464486476
 24      -0.110612204481
 25      -0.177531489298
 26      -0.161382552394
 27      -0.186989736465
 28      -0.266366436681
 29      -0.242136731530
 30      -0.280557626728
 31      -0.139421653160
 32      -0.126739311473
 33      -0.146849569318
 34      -0.004558430729
 35      -0.004143772117
 36      -0.004801168534
 37      -0.002554022929
 38      -0.002321714217
 39      -0.002690087225
 40       0.001763198487
 41       0.001602811785
 42       0.001857177971
 43      -0.001082623447
 44      -0.000984141342
 45      -0.001140334975
 46       0.000650210745
 47       0.000591067472
 48       0.000684845265
 49      -0.000385089696
 50      -0.000350061970
 51      -0.000405603734
 52       0.000215326271
 53       0.000195738641
 54       0.000226806477
 55      -0.000104117279
 56      -0.000094646922
 57      -0.000109662442
 58       0.000032592360
 59       0.000029627611
 60       0.000034329575
 61      -0.000000003097
 62       0.000000001171
 63      -0.000000002085
 64       0.000000003058
 65       0.000000001682
 66       0.000000000300
 67       0.000000000358
 68       0.000000000785
 69      -0.000000000559
 70       0.000000000047
 71       0.000000000067
 72       0.000000000124
 73      -0.000000000336
 74      -0.000000000077
 75       0.000000000079
 76       0.000000000133
 77      -0.000000000005
 78       0.000000000285
 79      -0.000000000186
 80      -0.000000000078
 81      -0.000000000206
 82      -0.000000000017
 83      -0.000000000207
 84       0.000000000255
 85       0.000000000066
 86       0.000000000048
 87      -0.000000000032
 88       0.000000000062
 89      -0.000000000039
 90      -0.000000000023
 91      -0.000000000025
 92      -0.000000000003
 93      -0.000000000051
 94       0.000000000039
 95       0.000000000016
 96       0.000000000009
 97      -0.000000000003
 98       0.000000000021
 99      -0.000000000011
100      -0.000000000007
101      -0.000000000012
102       0.000000000003
103      -0.000000000011
104       0.000000000013
105       0.000000000006
106       0.000000000001
107      -0.000000000000
108       0.000000000003
109      -0.000000000002
110      -0.000000000001
111       0.000000159054
112       0.000000040784
113      -0.000000111684
114       0.000000029956
115      -0.000000213334
116      -0.000000016474
117       0.000000187711
118      -0.000000129637
119      -0.000000012232
120       0.000000073969
121      -0.000000042790
122       0.000000118206
123       0.000000019486
124      -0.000000144917
125       0.000000092047
126      -0.000000000161
127      -0.000000044577
128       0.000000034054
129      -0.000000066862
130      -0.000000017945
131       0.000000100035
132      -0.000000038225
133      -0.000000002786
134       0.000000021859
135      -0.000000012905
136       0.000000036982
137       0.000000006491
138      -0.000000042790
139       0.000000012159
140       0.000000003845
141      -0.000000010408
142       0.000000003645
143      -0.000000018172
144      -0.000000000481
145       0.000000014494
146      -0.000000011788
147       0.000000000504
148       0.000000005296
149      -0.000000004119
150       0.000000008478
151       0.000000002686
152      -0.000000012677
153       0.000000002196
154       0.000000000548
155      -0.000000001705
156       0.000000000686
157      -0.000000002924
158      -0.000000000152
159       0.000000002578
 Sym=     1a
 Ene= -2.13368175431947E+02
 Spin= Alpha
 Occup= 1.000000
  1       0.018173792478
  2       0.015145938504
  3       0.025011151115
  4       0.044470252200
  5       0.070446804180
  6       0.093722830961
  7       0.022916123821
  8      -0.301227336191
  9      -0.689341371667
 10       0.217664825532
 11       0.982236627677
 12       0.132029622553
 13       0.020312922616
 14      -0.015535506355
 15       0.010937462111
 16      -0.007486447861
 17       0.004921358542
 18      -0.003070557897
 19       0.001743449852
 20      -0.000800357231
 21       0.000215865067
 22       0.000000022394
 23      -0.000000002208
 24      -0.000000010096
 25       0.000000040361
 26      -0.000000003877
 27      -0.000000018079
 28       0.000000063571
 29      -0.000000006845
 30      -0.000000029320
 31      -0.000000027076
 32       0.000000003975
 33       0.000000013403
 34      -0.000000170208
 35       0.000000017618
 36       0.000000077992
 37      -0.000000054142
 38       0.000000003807
 39       0.000000022865
 40       0.000000004763
 41      -0.000000000323
 42      -0.000000001998
 43      -0.000000003599
 44       0.000000000677
 45       0.000000002054
 46       0.000000000569
 47      -0.000000000000
 48      -0.000000000251
 49      -0.000000000566
 50      -0.000000000111
 51       0.000000000085
 52       0.000000000960
 53      -0.000000000225
 54      -0.000000000595
 55      -0.000000000203
 56       0.000000000037
 57       0.000000000129
 58       0.000000000154
 59      -0.000000000039
 60      -0.000000000103
 61      -0.000001320274
 62       0.000002213870
 63       0.000005637748
 64       0.000002392309
 65       0.000004521213
 66      -0.000002549554
 67       0.000002174422
 68       0.000010045880
 69       0.000005183637
 70       0.000007002574
 71      -0.000000767520
 72       0.000001127795
 73       0.000003401611
 74       0.000001458267
 75       0.000002488327
 76       0.000000084057
 77      -0.000000216565
 78      -0.000000379231
 79      -0.000000131999
 80      -0.000000348589
 81      -0.000000178862
 82       0.000000146824
 83       0.000000657451
 84       0.000000360568
 85       0.000000480656
 86       0.000000007140
 87      -0.000000022298
 88      -0.000000048662
 89      -0.000000012061
 90      -0.000000028535
 91      -0.000000032634
 92       0.000000003336
 93       0.000000109419
 94       0.000000071964
 95       0.000000070122
 96       0.000000015255
 97      -0.000000034044
 98      -0.000000068475
 99      -0.000000025525
100      -0.000000058732
101      -0.000000005442
102      -0.000000002162
103       0.000000017664
104       0.000000012763
105       0.000000009244
106       0.000000002003
107      -0.000000000827
108      -0.000000007231
109      -0.000000004277
110      -0.000000004746
111       0.000000000158
112      -0.000000000952
113      -0.000000000702
114       0.000000000357
115      -0.000000000818
116      -0.000000001677
117      -0.000000002098
118       0.000000000638
119       0.000000000515
120       0.000000000278
121      -0.000000001114
122       0.000000000919
123       0.000000000190
124       0.000000001589
125      -0.000000001493
126      -0.000000000628
127       0.000000000284
128       0.000000001759
129      -0.000000001858
130       0.000000000564
131      -0.000000001977
132       0.000000000295
133       0.000000000211
134      -0.000000000044
135      -0.000000000372
136       0.000000000523
137       0.000000000026
138       0.000000000576
139       0.000000000141
140      -0.000000000035
141      -0.000000000200
142      -0.000000000013
143       0.000000000155
144      -0.000000000218
145      -0.000000000105
146       0.000000000126
147       0.000000000063
148      -0.000000000032
149      -0.000000000145
150       0.000000000178
151      -0.000000000035
152       0.000000000179
153      -0.000000000004
154      -0.000000000012
155      -0.000000000015
156       0.000000000019
157      -0.000000000007
158      -0.000000000016
159      -0.000000000035
 Sym=     1a
 Ene= -1.75080378305825E+02
 Spin= Alpha
 Occup= 1.000000
  1       0.000000001673
  2       0.000000001397
  3       0.000000002295
  4       0.000000004118
  5       0.000000006436
  6       0.000000008746
  7       0.000000001957
  8      -0.000000027569
  9      -0.000000065682
 10       0.000000022928
 11       0.000000093343
 12       0.000000008129
 13       0.000000003000
 14      -0.000000002978
 15       0.000000001590
 16      -0.000000001400
 17       0.000000000879
 18      -0.000000000517
 19       0.000000000373
 20      -0.000000000156
 21       0.000000000053
 22      -0.068576482043
 23      -0.056863962962
 24      -0.047118581095
 25      -0.124508800524
 26      -0.103243323702
 27      -0.085549419590
 28      -0.189673944542
 29      -0.157278590482
 30      -0.130324087590
 31       0.085206811451
 32       0.070654166425
 33       0.058545556380
 34       0.505136183274
 35       0.418860924571
 36       0.347075953284
 37       0.171297442954
 38       0.142041229224
 39       0.117698467425
 40      -0.005116853356
 41      -0.004243167858
 42      -0.003516138332
 43       0.003960860115
 44       0.003284381989
 45       0.002721529156
 46      -0.002258430744
 47      -0.001872641923
 48      -0.001551672268
 49       0.001265849844
 50       0.001049618241
 51       0.000869712824
 52      -0.000698559236
 53      -0.000579290557
 54      -0.000480040931
 55       0.000336292437
 56       0.000278839056
 57       0.000231041109
 58      -0.000105256241
 59      -0.000087282094
 60      -0.000072325789
 61       0.000000030693
 62      -0.000000009743
 63       0.000000015717
 64      -0.000000034896
 65      -0.000000026429