[Molden Format]
[Title]
 Molden file created by orca_2mkl for BaseName=/data01/nikolayandreadi/sCC/H2O

[Atoms] AU
O    1   8         -0.0171190290        -0.0242225096         0.0000000000 
H    2   1         -0.5480432556         1.7151948076         0.0000000000 
H    3   1          1.7997959569         0.0550401634         0.0000000000 
[GTO]
  1 0
s   6 1.0 
    27032.3826310000         1.4645050749
     4052.3871392000         1.8244031008
      922.3272271000         2.8547160967
      261.2407098900         4.3654874290
       85.3546413500         5.8940772662
       31.0350352400         6.2963020147
s   1 1.0 
       12.2608607300         4.6698272139
s   1 1.0 
        4.9987076000         2.3826123703
s   1 1.0 
        1.1703108200         0.8019291632
s   1 1.0 
        0.4647474100        -0.4011648063
s   1 1.0 
        0.1850453600         0.2010799377
p   4 1.0 
       63.2749548000         3.0898340730
       14.6270493800         3.3923831935
        4.4501223500         2.9482801524
        1.5275799600         1.7113350234
p   1 1.0 
        0.5293511800         0.6436057935
p   1 1.0 
        0.1747842100         0.1610897223
d   1 1.0 
        2.3140000000        12.3767310624
d   1 1.0 
        0.6450000000         1.3234257612
f   1 1.0 
        1.4280000000        12.7097950062

  2 0
s   3 1.0 
       34.0613410000         0.2556300129
        5.1235746000         0.4613599287
        1.1646626000         0.6811215012
s   1 1.0 
        0.3272304100         0.3083545312
s   1 1.0 
        0.1030724100         0.1296483265
p   1 1.0 
        0.8000000000         1.0784563492

  3 0
s   3 1.0 
       34.0613410000         0.2556300129
        5.1235746000         0.4613599287
        1.1646626000         0.6811215012
s   1 1.0 
        0.3272304100         0.3083545312
s   1 1.0 
        0.1030724100         0.1296483265
p   1 1.0 
        0.8000000000         1.0784563492

[5D]
[9G]
[MO]
 Sym=     1a
 Ene= -2.05766901737239E+01
 Spin= Alpha
 Occup= 2.000000
  1       0.436226342620
  2       0.411695986090
  3       0.251302725976
  4       0.023499385805
  5       0.010487352203
  6       0.004387069206
  7       0.001035940567
  8       0.001465056561
  9       0.000000000000
 10      -0.001077010067
 11      -0.001523133153
 12      -0.000000000000
 13       0.000393806461
 14       0.000556934037
 15      -0.000000000000
 16      -0.000020381660
 17       0.000000000000
 18       0.000000000000
 19      -0.000004944262
 20       0.000013982828
 21       0.000466772750
 22      -0.000000000000
 23      -0.000000000000
 24      -0.000045636361
 25       0.000129069151
 26       0.000000000000
 27       0.000032080844
 28       0.000045368864
 29       0.000000000000
 30       0.000000000000
 31       0.000073713535
 32      -0.000020848019
 33       0.000514374218
 34       0.000787436437
 35      -0.000893488986
 36       0.000206169199
 37      -0.000446174540
 38       0.000000000000
 39       0.000514374509
 40       0.000787439577
 41      -0.000893486498
 42      -0.000489385370
 43       0.000045648220
 44       0.000000000000
 Sym=     1a
 Ene= -1.34869829827915E+00
 Spin= Alpha
 Occup= 2.000000
  1      -0.096621501976
  2      -0.145661031718
  3      -0.096438330059
  4       0.335608148471
  5      -0.457035435233
  6       0.162677401901
  7       0.034016057066
  8       0.048106844332
  9      -0.000000000000
 10       0.034537727471
 11       0.048844404078
 12       0.000000000000
 13       0.004008720924
 14       0.005669252591
 15      -0.000000000000
 16      -0.003918194474
 17      -0.000000000000
 18       0.000000000000
 19       0.000391075863
 20      -0.001106173974
 21      -0.010129606630
 22       0.000000000000
 23      -0.000000000000
 24       0.000527164517
 25      -0.001491017422
 26      -0.000000000000
 27      -0.001733825058
 28      -0.002452034926
 29       0.000000000000
 30       0.000000000000
 31      -0.004698794803
 32       0.001328952655
 33       0.087001653488
 34       0.066310748138
 35       0.003204114861
 36       0.006645837139
 37      -0.015670857176
 38       0.000000000000
 39       0.087001305296
 40       0.066310571910
 41       0.003204102019
 42      -0.016989848982
 43       0.001041985770
 44      -0.000000000000
 Sym=     1a
 Ene= -7.11631765929959E-01
 Spin= Alpha
 Occup= 2.000000
  1       0.000000080573
  2       0.000000127679
  3       0.000000072411
  4      -0.000000249726
  5       0.000000613224
  6      -0.000000573201
  7      -0.299836955849
  8       0.212015321793
  9       0.000000000000
 10      -0.263742280679
 11       0.186492555176
 12       0.000000000000
 13      -0.101933735285
 14       0.072077534233
 15       0.000000000000
 16      -0.000000017895
 17       0.000000000000
 18       0.000000000000
 19      -0.012809414608
 20      -0.004528953543
 21      -0.000000003143
 22      -0.000000000000
 23       0.000000000000
 24      -0.032465067243
 25      -0.011478455385
 26       0.000000000000
 27       0.004885210990
 28      -0.003454338459
 29      -0.000000000000
 30      -0.000000000000
 31       0.000114901920
 32       0.000406287538
 33       0.139697105471
 34       0.184960755692
 35       0.052034324297
 36      -0.002184879878
 37      -0.019909744248
 38       0.000000000000
 39      -0.139696853438
 40      -0.184960549875
 41      -0.052034361480
 42       0.018042670056
 43       0.008696686703
 44       0.000000000000
 Sym=     1a
 Ene= -5.80316603563680E-01
 Spin= Alpha
 Occup= 2.000000
  1       0.031841065211
  2       0.049530977431
  3       0.031523056961
  4      -0.126364675900
  5       0.181167856213
  6      -0.193195594472
  7       0.234560877030
  8       0.331721837208
  9       0.000000000000
 10       0.204282569994
 11       0.288901349936
 12       0.000000000000
 13       0.130275161734
 14       0.184238407473
 15       0.000000000000
 16      -0.005540767023
 17       0.000000000000
 18       0.000000000000
 19      -0.000675823041
 20       0.001911466690
 21      -0.017285880641
 22      -0.000000000000
 23       0.000000000000
 24      -0.006678830794
 25       0.018890156308
 26      -0.000000000000
 27      -0.002352176001
 28      -0.003326502067
 29       0.000000000000
 30       0.000000000000
 31      -0.002192734521
 32       0.000620170662
 33       0.085596105035
 34       0.124205181227
 35       0.033935310658
 36       0.018512241022
 37      -0.004131942059
 38      -0.000000000000
 39       0.085596373331
 40       0.124205689940
 41       0.033935607072
 42      -0.010066555105
 43       0.016076065416
 44       0.000000000000
 Sym=     1a
 Ene= -5.07440833896955E-01
 Spin= Alpha
 Occup= 2.000000
  1       0.000000000000
  2       0.000000000000
  3       0.000000000000
  4      -0.000000000000
  5       0.000000000000
  6      -0.000000000000
  7      -0.000000000000
  8       0.000000000000
  9      -0.464102625128
 10      -0.000000000000
 11       0.000000000000
 12      -0.415223563511
 13      -0.000000000000
 14       0.000000000000
 15      -0.313568465517
 16       0.000000000000
 17      -0.002431458791
 18      -0.003438653055
 19      -0.000000000000
 20       0.000000000000
 21       0.000000000000
 22      -0.014763263232
 23      -0.020878639160
 24      -0.000000000000
 25      -0.000000000000
 26       0.005515501048
 27       0.000000000000
 28       0.000000000000
 29      -0.000527381632
 30       0.001491631090
 31       0.000000000000
 32       0.000000000000
 33       0.000000000000
 34       0.000000000000
 35      -0.000000000000
 36       0.000000000000
 37      -0.000000000000
 38      -0.023749199736
 39      -0.000000000000
 40      -0.000000000000
 41       0.000000000000
 42      -0.000000000000
 43       0.000000000000
 44      -0.023749165782
 Sym=     1a
 Ene= 1.26674819166653E-01
 Spin= Alpha
 Occup= 0.000000
  1      -0.027163862130
  2      -0.034863387074
  3      -0.045329672951
  4       0.217282077393
  5       0.264763627015
  6       1.409750649576
  7       0.069606435642
  8       0.098438630133
  9      -0.000000000000
 10       0.029352871177
 11       0.041510754273
 12      -0.000000000000
 13       0.214120697256
 14       0.302813782311
 15      -0.000000000000
 16       0.000208761131
 17       0.000000000000
 18      -0.000000000000
 19      -0.000434704878
 20       0.001229469175
 21       0.006809869528
 22      -0.000000000000
 23      -0.000000000000
 24      -0.003609648513
 25       0.010209554786
 26       0.000000000000
 27      -0.000119983102
 28      -0.000169668487
 29      -0.000000000000
 30      -0.000000000000
 31       0.000997091328
 32      -0.000282002083
 33      -0.023841776218
 34       0.021964341522
 35      -1.065603441365
 36       0.012212484519
 37      -0.035321344902
 38      -0.000000000000
 39      -0.023842109783
 40       0.021963897122
 41      -1.065605791632
 42      -0.037371958857
 43      -0.000260120748
 44       0.000000000000
 Sym=     1a
 Ene= 1.97032750753463E-01
 Spin= Alpha
 Occup= 0.000000
  1       0.000000030760
  2       0.000000026366
  3       0.000000084749
  4      -0.000000518960
  5      -0.000001515467
  6      -0.000003409604
  7       0.154766575973
  8      -0.109435397789
  9      -0.000000000000
 10       0.004304708828
 11      -0.003043367205
 12      -0.000000000000
 13       0.605229091947
 14      -0.427957619493
 15      -0.000000000000
 16       0.000000006300
 17       0.000000000000
 18      -0.000000000000
 19       0.001085126724
 20       0.000383667641
 21      -0.000000090267
 22      -0.000000000000
 23      -0.000000000000
 24      -0.033929060027
 25      -0.011996116229
 26       0.000000000000
 27       0.001228914308
 28      -0.000868973597
 29      -0.000000000000
 30      -0.000000000000
 31       0.000921046632
 32       0.003256611528
 33       0.017121961931
 34      -0.160380870950
 35       1.852165509187
 36      -0.012992944643
 37       0.052427678966
 38      -0.000000000000
 39      -0.017122256569
 40       0.160379718718
 41      -1.852161442019
 42      -0.053759812906
 43      -0.005226479185
 44       0.000000000000
 Sym=     1a
 Ene= 5.22416339203415E-01
 Spin= Alpha
 Occup= 0.000000
  1       0.000000113628
  2       0.000000212928
  3       0.000000030042
  4      -0.000000051449
  5       0.000001416839
  6       0.000002172580
  7      -0.072605085500
  8       0.051338425099
  9      -0.000000000000
 10      -0.264295799684
 11       0.186883098100
 12      -0.000000000000
 13      -1.239734426540
 14       0.876613920298
 15       0.000000000000
 16      -0.000000055871
 17       0.000000000000
 18      -0.000000000000
 19       0.034057094334
 20       0.012041327851
 21      -0.000000071131
 22       0.000000000000
 23       0.000000000000
 24      -0.163023891078
 25      -0.057639491039
 26       0.000000000000
 27       0.012787599734
 28      -0.009042100772
 29      -0.000000000000
 30      -0.000000000000
 31       0.001348994524
 32       0.004769627977
 33      -0.092499189811
 34      -1.531537466804
 35       0.211249745046
 36      -0.046586697573
 37       0.110830908370
 38      -0.000000000000
 39       0.092499563449
 40       1.531545327754
 41      -0.211256061858
 42      -0.120021132249
 43       0.006977526701
 44       0.000000000000
 Sym=     1a
 Ene= 5.64582126790804E-01
 Spin= Alpha
 Occup= 0.000000
  1      -0.030592915234
  2      -0.060998832641
  3       0.000882402549
  4      -0.096163674160
  5      -0.917691499547
  6       0.618021796169
  7      -0.058349729061
  8      -0.082520017332
  9       0.000000000000
 10      -0.096623258481
 11      -0.136645196658
 12       0.000000000000
 13       0.928092892481
 14       1.312546392671
 15      -0.000000000000
 16       0.019574201272
 17      -0.000000000000
 18       0.000000000000
 19      -0.000780448291
 20       0.002207711620
 21      -0.087331899803
 22      -0.000000000000
 23       0.000000000000
 24       0.001788666286
 25      -0.005061741000
 26      -0.000000000000
 27      -0.004916698045
 28      -0.006953430200
 29       0.000000000000
 30      -0.000000000000
 31      -0.015160937810
 32       0.004287967791
 33      -0.048163079216
 34      -1.382333108439
 35       0.241021269507
 36      -0.035918279556
 37       0.097672396971
 38       0.000000000000
 39      -0.048162516559
 40      -1.382322586512
 41       0.241024757851
 42       0.104057784944
 43      -0.001305612765
 44      -0.000000000000
 Sym=     1a
 Ene= 5.97330103555354E-01
 Spin= Alpha
 Occup= 0.000000
  1      -0.000000000000
  2      -0.000000000000
  3       0.000000000000
  4      -0.000000000000
  5      -0.000000000000
  6      -0.000000000000
  7       0.000000000000
  8       0.000000000000
  9       0.272045812543
 10       0.000000000000
 11       0.000000000000
 12       0.743407259270
 13      -0.000000000001
 14      -0.000000000000
 15      -1.264760719268
 16      -0.000000000000
 17       0.003850008150
 18       0.005444804733
 19       0.000000000000
 20       0.000000000000
 21       0.000000000000
 22      -0.004831905266
 23      -0.006833414121
 24      -0.000000000000
 25      -0.000000000000
 26      -0.001057331525
 27       0.000000000000
 28      -0.000000000000
 29       0.000139553698
 30      -0.000394695708
 31       0.000000000000
 32       0.000000000000
 33      -0.000000000000
 34      -0.000000000000
 35       0.000000000000
 36      -0.000000000000
 37       0.000000000000
 38       0.014055664616
 39       0.000000000000
 40       0.000000000000
 41       0.000000000000
 42      -0.000000000000
 43       0.000000000000
 44       0.014055565536
 Sym=     1a
 Ene= 6.39910830228085E-01
 Spin= Alpha
 Occup= 0.000000
  1       0.012407091167
  2       0.020303592381
  3       0.009272851723
  4       0.023187359339
  5       0.322257973996
  6      -0.716302010087
  7      -0.161351764726
  8      -0.228187391320
  9       0.000000000000
 10      -0.480494884258
 11      -0.679530869498
 12       0.000000000000
 13       0.176953342220
 14       0.250237851727
 15      -0.000000000000
 16      -0.010459362792
 17       0.000000000000
 18       0.000000000000
 19       0.003742249329
 20      -0.010584727271
 21       0.045354351893
 22       0.000000000000
 23      -0.000000000000
 24      -0.002603957803
 25       0.007368467394
 26       0.000000000000
 27       0.004621090110
 28       0.006535443420
 29      -0.000000000000
 30      -0.000000000000
 31       0.014830397993
 32      -0.004194498842
 33       0.064883537786
 34       1.257811525865
 35      -0.508136434022
 36      -0.003970270113
 37      -0.072508748202
 38      -0.000000000000
 39       0.064883095820
 40       1.257800245275
 41      -0.508142106343
 42      -0.067036194940
 43      -0.027913296140
 44       0.000000000000
 Sym=     1a
 Ene= 7.63211032611920E-01
 Spin= Alpha
 Occup= 0.000000
  1      -0.046463397706
  2      -0.104055491245
  3       0.027532438817
  4      -0.258713552851
  5      -2.499147259863
  6      -4.888995787537
  7       0.046460393321
  8       0.065698969028
  9      -0.000000000000
 10       0.039533234918
 11       0.055890727999
 12      -0.000000000000
 13      -0.744432034799
 14      -1.052760791147
 15       0.000000000000
 16      -0.016306042634
 17      -0.000000000000
 18      -0.000000000000
 19       0.001464386313
 20      -0.004141506983
 21       0.058132708877
 22      -0.000000000000
 23      -0.000000000000
 24      -0.002114247340
 25       0.005978645607
 26      -0.000000000000
 27       0.002848518093
 28       0.004028436551
 29       0.000000000000
 30       0.000000000000
 31       0.009893024422
 32      -0.002797999438
 33      -0.023983679590
 34       0.851918485504
 35       0.963345034730
 36       0.016662390281
 37      -0.078334965191
 38       0.000000000000
 39      -0.023984798857
 40       0.851911089336
 41       0.963375928416
 42      -0.079409620259
 43      -0.010403366626
 44      -0.000000000000
 Sym=     1a
 Ene= 7.72441173418450E-01
 Spin= Alpha
 Occup= 0.000000
  1       0.000000590311
  2       0.000001313562
  3      -0.000000335552
  4       0.000003542413
  5       0.000032066772
  6       0.000054831707
  7       0.271603699655
  8      -0.192052409615
  9       0.000000000000
 10       0.737440143156
 11      -0.521447074329
 12      -0.000000000000
 13      -1.503174572489
 14       1.062910425657
 15       0.000000000000
 16       0.000000140954
 17      -0.000000000000
 18      -0.000000000000
 19       0.006226686873
 20       0.002201568896
 21      -0.000000257784
 22      -0.000000000000
 23       0.000000000000
 24      -0.027896533919
 25      -0.009863167959
 26      -0.000000000000
 27      -0.001476063311
 28       0.001043732384
 29       0.000000000000
 30       0.000000000000
 31       0.000148352163
 32       0.000524523633
 33       0.049711450135
 34       0.335220135849
 35      -1.531713585805
 36       0.007586745126
 37       0.026231104947
 38       0.000000000000
 39      -0.049710753243
 40      -0.335229503713
 41       1.531688191138
 42      -0.022201418506
 43      -0.015896595313
 44      -0.000000000000
 Sym=     1a
 Ene= 1.41062610688668E+00
 Spin= Alpha
 Occup= 0.000000
  1      -0.003265503310
  2      -0.004694336735
  3      -0.005265653955
  4       0.048640427553
  5      -0.022641134437
  6      -0.868057245223
  7      -0.041696295885
  8      -0.058967978516
  9      -0.000000000000
 10      -0.114951369680
 11      -0.162568619935
 12      -0.000000000000
 13      -0.309110189162
 14      -0.437154129057
 15      -0.000000000000
 16       0.001526742187
 17       0.000000000000
 18      -0.000000000000
 19      -0.002771719908
 20       0.007839362553
 21      -0.115475907284
 22       0.000000000004
 23      -0.000000000002
 24      -0.164708996292
 25       0.465855407033
 26       0.000000000000
 27       0.003475925332
 28       0.004915780234
 29      -0.000000000000
 30      -0.000000000000
 31       0.007325856688
 32      -0.002072065774
 33      -0.047300340719
 34       0.603167188513
 35       0.032704636400
 36       0.439315264407
 37       0.066820346594
 38      -0.000000000003
 39      -0.047300323123
 40       0.603163849779
 41       0.032704177100
 42      -0.083442755069
 43       0.436463828043
 44       0.000000000005
 Sym=     1a
 Ene= 1.44019886036131E+00
 Spin= Alpha
 Occup= 0.000000
  1      -0.000000000000
  2      -0.000000000000
  3      -0.000000000000
  4       0.000000000000
  5       0.000000000000
  6      -0.000000000008
  7      -0.000000000001
  8      -0.000000000001
  9       0.000000132065
 10      -0.000000000002
 11      -0.000000000001
 12      -0.000000432253
 13      -0.000000000003
 14      -0.000000000004
 15       0.000000674562
 16       0.000000000000
 17      -0.003622869220
 18       0.002561748690
 19      -0.000000000000
 20       0.000000000000
 21      -0.000000000001
 22      -0.436973723587
 23       0.308982549463
 24      -0.000000000002
 25       0.000000000004
 26       0.000000045959
 27       0.000000000000
 28       0.000000000000
 29       0.012494571799
 30       0.004417617968
 31       0.000000000000
 32       0.000000000000
 33      -0.000000000000
 34       0.000000000005
 35       0.000000000001
 36       0.000000000004
 37       0.000000000001
 38       0.430896447919
 39      -0.000000000000
 40       0.000000000006
 41      -0.000000000000
 42      -0.000000000001
 43       0.000000000004
 44      -0.430898161644
 Sym=     1a
 Ene= 1.55061273588230E+00
 Spin= Alpha
 Occup= 0.000000
  1       0.000000000000
  2       0.000000000000
  3       0.000000000000
  4       0.000000000000
  5       0.000000000000
  6      -0.000000000001
  7      -0.000000000000
  8      -0.000000000000
  9       0.091428416393
 10      -0.000000000001
 11      -0.000000000000
 12       0.079240478878
 13      -0.000000000000
 14      -0.000000000001
 15       0.189723592297
 16       0.000000000000
 17       0.002193099453
 18       0.003101508875
 19       0.000000000000
 20       0.000000000000
 21      -0.000000000000
 22      -0.385556866854
 23      -0.545266900378
 24      -0.000000000000
 25       0.000000000000
 26      -0.007019301313
 27       0.000000000000
 28       0.000000000000
 29       0.004683930355
 30      -0.013248022470
 31       0.000000000000
 32       0.000000000000
 33      -0.000000000000
 34       0.000000000000
 35       0.000000000000
 36       0.000000000001
 37       0.000000000000
 38      -0.388757093892
 39       0.000000000000
 40       0.000000000002
 41      -0.000000000000
 42      -0.000000000001
 43       0.000000000001
 44      -0.388755709175
 Sym=     1a
 Ene= 1.77377871004367E+00
 Spin= Alpha
 Occup= 0.000000
  1       0.000000078913
  2       0.000000035762
  3       0.000000344351
  4      -0.000003823989
  5      -0.000013147869
  6       0.000009036767
  7       0.098011704059
  8      -0.069304975590
  9      -0.000000000000
 10      -0.811153946947
 11       0.573574390319
 12       0.000000000000
 13      -0.776453331031
 14       0.549035230983
 15      -0.000000000000
 16       0.000000011398
 17      -0.000000000000
 18      -0.000000000000
 19       0.017399378710
 20       0.006151796561
 21      -0.000004305760
 22       0.000000000000
 23       0.000000000000
 24      -1.188670820016
 25      -0.420272451971
 26       0.000000000000
 27       0.048392947254
 28      -0.034219012277
 29      -0.000000000000
 30       0.000000000000
 31       0.010757832301
 32       0.038038936614
 33       0.367726491395
 34      -2.216652250428
 35       0.484111501955
 36       0.089890995666
 37       0.519137267798
 38       0.000000000000
 39      -0.367724883565
 40       2.216625865528
 41      -0.484109808132
 42      -0.459472495760
 43      -0.257799539649
 44       0.000000000000
 Sym=     1a
 Ene= 1.89692225910982E+00
 Spin= Alpha
 Occup= 0.000000
  1      -0.017170616075
  2      -0.011875002893
  3      -0.061509035150
  4       0.491424733009
  5       0.915466644948
  6      -1.843519329988
  7       0.056738528232
  8       0.080241345246
  9      -0.000000000000
 10      -0.332854149844
 11      -0.470736404559
 12       0.000000000000
 13      -0.547512176866
 14      -0.774303872861
 15      -0.000000000000
 16      -0.014620907879
 17       0.000000000000
 18       0.000000000000
 19       0.000228692954
 20      -0.000646707997
 21       1.155313635870
 22      -0.000000000001
 23      -0.000000000000
 24      -0.092852933444
 25       0.262616302360
 26       0.000000000000
 27       0.024195630709
 28       0.034218270914
 29      -0.000000000000
 30      -0.000000000000
 31       0.060731762057
 32      -0.017176674400
 33      -0.353551850485
 34       2.142986145561
 35      -0.186690742584
 36       0.126111107049
 37      -0.320075132775
 38       0.000000000000
 39      -0.353554791313
 40       2.142986772562
 41      -0.186692631430
 42      -0.343803143958
 43       0.012200770446
 44       0.000000000000
 Sym=     1a
 Ene= 2.02854780659278E+00
 Spin= Alpha
 Occup= 0.000000
  1       0.000000002279
  2       0.000000022551
  3      -0.000000053855
  4       0.000000932796
  5       0.000004766883
  6       0.000002505179
  7      -0.125403423801
  8       0.088673119883
  9       0.000000000000
 10       0.229994172789
 11      -0.162632146394
 12      -0.000000000000
 13      -0.247623583400
 14       0.175096328281
 15       0.000000000000
 16       0.000000030689
 17      -0.000000000000
 18       0.000000000000
 19      -0.015230348309
 20      -0.005384858630
 21      -0.000001532214
 22       0.000000000000
 23       0.000000000000
 24       0.464859574390
 25       0.164358072993
 26      -0.000000000000
 27      -0.015740270292
 28       0.011130076003
 29       0.000000000000
 30       0.000000000000
 31      -0.008175377396
 32      -0.028906286384
 33      -0.113769351629
 34       0.485349901130
 35      -0.323563148747
 36       0.784350483470
 37       0.070994771635
 38      -0.000000000000
 39       0.113769529085
 40      -0.485348389560
 41       0.323562091016
 42       0.194519888034
 43      -0.763156637121
 44      -0.000000000000
 Sym=     1a
 Ene= 2.27075316288337E+00
 Spin= Alpha
 Occup= 0.000000
  1       0.019537105876
  2      -0.000811630727
  3       0.110449350853
  4      -1.018857339058
  5      -2.951280753711
  6      -0.084720287852
  7      -0.202517886552
  8      -0.286407042529
  9      -0.000000000000
 10       0.790147050533
 11       1.117457873251
 12       0.000000000000
 13       0.010924259589
 14       0.015447027515
 15      -0.000000000000
 16       0.000574938478
 17       0.000000000000
 18       0.000000000000
 19      -0.000787776370
 20       0.002227580323
 21       0.079855880502
 22      -0.000000000001
 23      -0.000000000000
 24       0.073066947789
 25      -0.206654631986
 26       0.000000000000
 27      -0.041285357873
 28      -0.058387083781
 29      -0.000000000000
 30      -0.000000000000
 31      -0.147097803382
 32       0.041603324340
 33       0.611599418529
 34      -1.994386920721
 35       0.471602628842
 36      -0.158587748594
 37       0.938765774915
 38       0.000000000000
 39       0.611602979646
 40      -1.994383311866
 41       0.471602279759
 42       0.937931528588
 43       0.163410355973
 44       0.000000000001
 Sym=     1a
 Ene= 2.34969396979510E+00
 Spin= Alpha
 Occup= 0.000000
  1       0.000000000000
  2       0.000000000000
  3       0.000000000000
  4      -0.000000000001
  5      -0.000000000001
  6      -0.000000000002
  7      -0.000000000001
  8      -0.000000000000
  9       0.274480500141
 10      -0.000000000001
 11       0.000000000001
 12      -0.066324600341
 13      -0.000000000001
 14      -0.000000000001
 15       0.433582378994
 16      -0.000000000000
 17      -0.010258319569
 18      -0.014507071061
 19       0.000000000000
 20       0.000000000000
 21       0.000000000001
 22       0.522283300739
 23       0.738600997910
 24      -0.000000000000
 25      -0.000000000001
 26      -0.000799526213
 27       0.000000000000
 28      -0.000000000000
 29      -0.004288714715
 30       0.012129617007
 31      -0.000000000000
 32       0.000000000000
 33       0.000000000000
 34      -0.000000000001
 35       0.000000000001
 36       0.000000000001
 37       0.000000000001
 38      -0.771564889097
 39       0.000000000000
 40       0.000000000002
 41      -0.000000000000
 42      -0.000000000001
 43       0.000000000001
 44      -0.771585751346
 Sym=     1a
 Ene= 2.39102440328018E+00
 Spin= Alpha
 Occup= 0.000000
  1       0.000000000000
  2       0.000000000000
  3       0.000000000000
  4      -0.000000000000
  5      -0.000000000001
  6      -0.000000000002
  7      -0.000000000000
  8      -0.000000000000
  9      -0.000004550715
 10      -0.000000000001
 11       0.000000000001
 12       0.000000459481
 13      -0.000000000001
 14      -0.000000000001
 15      -0.000006471719
 16      -0.000000000000
 17      -0.019511710268
 18       0.013797077421
 19       0.000000000000
 20       0.000000000000
 21       0.000000000001
 22       0.890751575323
 23      -0.629866889133
 24      -0.000000000000
 25      -0.000000000001
 26       0.000000124477
 27       0.000000000000
 28      -0.000000000000
 29       0.001796970614
 30       0.000635198451
 31       0.000000000000
 32       0.000000000000
 33       0.000000000000
 34      -0.000000000001
 35       0.000000000001
 36       0.000000000001
 37       0.000000000001
 38       0.759092395776
 39       0.000000000000
 40       0.000000000002
 41      -0.000000000000
 42      -0.000000000001
 43       0.000000000001
 44      -0.759068708118
 Sym=     1a
 Ene= 2.57378227453345E+00
 Spin= Alpha
 Occup= 0.000000
  1       0.000000019396
  2       0.000000124386
  3      -0.000000224202
  4       0.000001252437
  5      -0.000001372799
  6      -0.000005217398
  7       0.266345865019
  8      -0.188333465298
  9      -0.000000000000
 10      -1.797369755251
 11       1.270919827380
 12       0.000000000000
 13       0.209869293522
 14      -0.148401278566
 15      -0.000000000000
 16      -0.000000146042
 17       0.000000000000
 18      -0.000000000000
 19       0.033633397922
 20       0.011891476414
 21       0.000001283258
 22      -0.000000000001
 23       0.000000000000
 24      -0.244876378907
 25      -0.086578156055
 26      -0.000000000000
 27       0.100392652232
 28      -0.070987363285
 29       0.000000000000
 30      -0.000000000000
 31       0.018925518526
 32       0.066913930356
 33       0.422444983453
 34      -1.977179094352
 35       0.709521877057
 36      -0.298777834787
 37       1.210013268333
 38      -0.000000000000
 39      -0.422451435063
 40       1.977188975293
 41      -0.709522532942
 42      -1.240405354346
 43      -0.121659919811
 44       0.000000000001
 Sym=     1a
 Ene= 2.68572777451749E+00
 Spin= Alpha
 Occup= 0.000000
  1      -0.019228344042
  2      -0.009075396411
  3      -0.080641058978
  4       0.593787793630
  5       1.118923895409
  6      -0.407464354128
  7      -0.214214101832
  8      -0.302945695415
  9      -0.000000000000
 10      -0.046671695873
 11      -0.066005085771
 12       0.000000000000
 13      -0.412013934318
 14      -0.582679226621
 15      -0.000000000000
 16       0.002977077656
 17       0.000000000000
 18      -0.000000000000
 19      -0.003275258773
 20       0.009263776199
 21       0.173112669754
 22      -0.000000000001
 23       0.000000000000
 24       0.371782941945
 25      -1.051530796515
 26      -0.000000000000
 27       0.009463349268
 28       0.013383218232
 29       0.000000000000
 30      -0.000000000000
 31       0.046674643630
 32      -0.013201017256
 33      -0.163958957659
 34       0.793541691933
 35      -0.028211086296
 36       0.864281593001
 37      -0.068492901219
 38      -0.000000000000
 39      -0.163959158329
 40       0.793541819759
 41      -0.028210088705
 42      -0.352677470548