[Molden Format]
[Title]
 Molden file created by orca_2mkl for BaseName=/data01/Nikolayandreadi/heavy/simpleIons/NO3_-

[Atoms] AU
O    1   8          2.1774652837         1.5921736363         0.1308389683 
N    2   7         -0.1755442195         1.2517697089         0.0791096051 
O    3   8         -1.6448346345         3.0006980178         0.7403436767 
O    4   8         -1.0592349618        -0.8377666178        -0.6339275289 
[GTO]
  1 0
s   6 1.0 
    27032.3826310000         1.4645050749
     4052.3871392000         1.8244031008
      922.3272271000         2.8547160967
      261.2407098900         4.3654874290
       85.3546413500         5.8940772662
       31.0350352400         6.2963020147
s   1 1.0 
       12.2608607300         4.6698272139
s   1 1.0 
        4.9987076000         2.3826123703
s   1 1.0 
        1.1703108200         0.8019291632
s   1 1.0 
        0.4647474100        -0.4011648063
s   1 1.0 
        0.1850453600         0.2010799377
p   4 1.0 
       63.2749548000         3.0898340730
       14.6270493800         3.3923831935
        4.4501223500         2.9482801524
        1.5275799600         1.7113350234
p   1 1.0 
        0.5293511800         0.6436057935
p   1 1.0 
        0.1747842100         0.1610897223
d   1 1.0 
        2.3140000000        12.3767310624
d   1 1.0 
        0.6450000000         1.3234257612
f   1 1.0 
        1.4280000000        12.7097950062
s   1 1.0 
        0.0616817867         0.0882120269
p   1 1.0 
        0.0582614033         0.0408005732

  2 0
s   6 1.0 
    19730.8006470000         1.0813791907
     2957.8958745000         1.4296791707
      673.2213359500         2.2863987979
      190.6824949400         3.5072217175
       62.2954419000         4.7060688532
       22.6541611800         4.9392449708
s   1 1.0 
        8.9791477400         3.6968891641
s   1 1.0 
        3.6863002400         1.8960645594
s   1 1.0 
        0.8466007700         0.6290267093
s   1 1.0 
        0.3364713400        -0.3148626531
s   1 1.0 
        0.1364765400         0.1600308069
p   4 1.0 
       49.2003805100         2.1434239845
       11.3467905400         2.3318876812
        3.4273972400         2.0487379397
        1.1785525100         1.2605537349
p   1 1.0 
        0.4164220500         0.4768230432
p   1 1.0 
        0.1426082600         0.1249168255
d   1 1.0 
        1.6540000000         6.8771297418
d   1 1.0 
        0.4690000000         0.7577440909
f   1 1.0 
        1.0930000000         6.9645882147
s   1 1.0 
        0.0454921800         0.0702041287
p   1 1.0 
        0.0475360867         0.0316387540

  3 0
s   6 1.0 
    27032.3826310000         1.4645050749
     4052.3871392000         1.8244031008
      922.3272271000         2.8547160967
      261.2407098900         4.3654874290
       85.3546413500         5.8940772662
       31.0350352400         6.2963020147
s   1 1.0 
       12.2608607300         4.6698272139
s   1 1.0 
        4.9987076000         2.3826123703
s   1 1.0 
        1.1703108200         0.8019291632
s   1 1.0 
        0.4647474100        -0.4011648063
s   1 1.0 
        0.1850453600         0.2010799377
p   4 1.0 
       63.2749548000         3.0898340730
       14.6270493800         3.3923831935
        4.4501223500         2.9482801524
        1.5275799600         1.7113350234
p   1 1.0 
        0.5293511800         0.6436057935
p   1 1.0 
        0.1747842100         0.1610897223
d   1 1.0 
        2.3140000000        12.3767310624
d   1 1.0 
        0.6450000000         1.3234257612
f   1 1.0 
        1.4280000000        12.7097950062
s   1 1.0 
        0.0616817867         0.0882120269
p   1 1.0 
        0.0582614033         0.0408005732

  4 0
s   6 1.0 
    27032.3826310000         1.4645050749
     4052.3871392000         1.8244031008
      922.3272271000         2.8547160967
      261.2407098900         4.3654874290
       85.3546413500         5.8940772662
       31.0350352400         6.2963020147
s   1 1.0 
       12.2608607300         4.6698272139
s   1 1.0 
        4.9987076000         2.3826123703
s   1 1.0 
        1.1703108200         0.8019291632
s   1 1.0 
        0.4647474100        -0.4011648063
s   1 1.0 
        0.1850453600         0.2010799377
p   4 1.0 
       63.2749548000         3.0898340730
       14.6270493800         3.3923831935
        4.4501223500         2.9482801524
        1.5275799600         1.7113350234
p   1 1.0 
        0.5293511800         0.6436057935
p   1 1.0 
        0.1747842100         0.1610897223
d   1 1.0 
        2.3140000000        12.3767310624
d   1 1.0 
        0.6450000000         1.3234257612
f   1 1.0 
        1.4280000000        12.7097950062
s   1 1.0 
        0.0616817867         0.0882120269
p   1 1.0 
        0.0582614033         0.0408005732

[5D]
[7F]
[9G]
[MO]
 Sym=     1a
 Ene= -2.03739265438835E+01
 Spin= Alpha
 Occup= 2.000000
  1       0.218784309888
  2       0.206635623290
  3       0.125746984196
  4       0.012887101953
  5       0.008866918556
  6       0.004804937922
  7      -0.001136689773
  8      -0.000184146871
  9      -0.000031956509
 10       0.002981506781
 11       0.000438831450
 12       0.000068199762
 13      -0.000937898641
 14      -0.000639614792
 15      -0.000198797287
 16      -0.000039448549
 17       0.000002495912
 18       0.000002774900
 19       0.000059925983
 20       0.000017713606
 21       0.000425285566
 22      -0.000038194945
 23       0.000102637755
 24      -0.000969232323
 25      -0.000245655336
 26      -0.000007118036
 27      -0.000067718291
 28      -0.000015118757
 29       0.000020307928
 30      -0.000025230448
 31      -0.000129641105
 32      -0.000080968041
 33      -0.002375213051
 34       0.000369663728
 35       0.000298954242
 36       0.000094921277
 37      -0.000001282121
 38      -0.000003857876
 39       0.000014086762
 40       0.000176196744
 41       0.000925098605
 42       0.000215933886
 43      -0.000008021534
 44       0.000006041539
 45       0.000002370123
 46       0.005235651776
 47      -0.003949571791
 48      -0.001549182160
 49      -0.002814354116
 50       0.002122993338
 51       0.000832725816
 52       0.000004484200
 53       0.000059769335
 54      -0.000043194831
 55       0.000083041939
 56       0.000173848034
 57      -0.000020475192
 58       0.000883474658
 59      -0.000584947431
 60       0.001244005807
 61       0.002585037985
 62       0.000152707074
 63      -0.000202750632
 64       0.000102758091
 65       0.000071349984
 66       0.000138497866
 67      -0.000005326155
 68       0.000026773748
 69      -0.000295062605
 70       0.001515982095
 71      -0.001143582789
 72      -0.000448560049
 73      -0.368304582007
 74      -0.347859547076
 75      -0.211672703834
 76      -0.021704655812
 77      -0.014685858423
 78      -0.007533927268
 79      -0.001204683565
 80       0.001443493181
 81       0.000545521532
 82       0.003101897889
 83      -0.003695855289
 84      -0.001397239089
 85      -0.000813688563
 86       0.001212939200
 87       0.000452599182
 88       0.000068902504
 89       0.000036246264
 90      -0.000057169090
 91       0.000013483218
 92       0.000092026303
 93      -0.000547114569
 94      -0.000564887458
 95       0.000551931780
 96      -0.000275961931
 97      -0.001524775716
 98       0.000074883363
 99      -0.000037916901
100       0.000058504295
101       0.000009042231
102       0.000129356060
103       0.000192944946
104       0.000098465651
105       0.003781741544
106       0.000326733737
107      -0.000507959420
108      -0.000189132116
109       0.082322158225
110       0.077749509568
111       0.047317610391
112       0.004846647439
113       0.003392382715
114       0.001936854763
115       0.000184454645
116       0.000367728320
117       0.000124640294
118      -0.000435495300
119      -0.001003528934
120      -0.000342122599
121       0.000800331681
122       0.000144239677
123       0.000027656932
124      -0.000007404448
125       0.000005514975
126       0.000010852518
127      -0.000015485860
128       0.000015681480
129       0.000082152070
130      -0.000079091120
131      -0.000168665016
132       0.000295206010
133      -0.000215804249
134       0.000010078349
135       0.000002649789
136       0.000009079347
137       0.000006555073
138      -0.000032360538
139      -0.000063308335
140      -0.000002542001
141      -0.000944085376
142      -0.000374463972
143      -0.000033841249
144      -0.000001043758
 Sym=     1a
 Ene= -2.03739140676373E+01
 Spin= Alpha
 Occup= 2.000000
  1      -0.287446357199
  2      -0.271490695890
  3      -0.165200184344
  4      -0.016940669932
  5      -0.011428917002
  6      -0.005806365582
  7       0.001516853023
  8       0.000201327767
  9       0.000026943163
 10      -0.003872921294
 11      -0.000553340919
 12      -0.000082688000
 13       0.001216696059
 14      -0.000286008579
 15      -0.000136613082
 16       0.000066442131
 17      -0.000002258061
 18      -0.000014134807
 19      -0.000078161015
 20      -0.000022733787
 21      -0.000606064794
 22       0.000076676921
 23      -0.000081797359
 24       0.001216819279
 25       0.000401259710
 26       0.000002543964
 27       0.000105825568
 28       0.000012153909
 29      -0.000009233497
 30       0.000020368326
 31       0.000171287782
 32       0.000060639187
 33       0.002923316224
 34      -0.000510492509
 35       0.000151249543
 36       0.000068367737
 37      -0.000001452957
 38      -0.000004372581
 39       0.000015965507
 40       0.000199872785
 41       0.001048854370
 42       0.000244705108
 43       0.000006628708
 44       0.000007628340
 45       0.000002503829
 46      -0.004279984209
 47      -0.004934354999
 48      -0.001619839780
 49       0.002300684908
 50       0.002652373189
 51       0.000870713928
 52       0.000034441459
 53       0.000035686921
 54       0.000044250514
 55      -0.000177015064
 56       0.000082613008
 57       0.000413061980
 58       0.000525005601
 59       0.000722150134
 60      -0.002619261966
 61       0.001229560826
 62       0.000159727037
 63       0.000180438163
 64       0.000139898773
 65       0.000111627651
 66      -0.000079069504
 67       0.000044592151
 68       0.000041107084
 69      -0.000334679517
 70      -0.001239623107
 71      -0.001429127695
 72      -0.000469150552
 73      -0.100969163161
 74      -0.095366244509
 75      -0.058025489236
 76      -0.005953451914
 77      -0.003948510892
 78      -0.001887416572
 79      -0.000356964143
 80       0.000382858382
 81       0.000145781084
 82       0.000848879471
 83      -0.000994400274
 84      -0.000376355389
 85      -0.000770589655
 86      -0.000156605066
 87      -0.000032896512
 88       0.000024149545
 89       0.000009940964
 90      -0.000018972447
 91       0.000002826081
 92       0.000024320839
 93      -0.000163338656
 94      -0.000144992372
 95       0.000180673920
 96      -0.000127660929
 97      -0.000391648163
 98       0.000023179087
 99      -0.000019556869
100       0.000019409559
101      -0.000006136149
102       0.000033205800
103       0.000034339002
104       0.000047142011
105       0.000967417970
106       0.000363425499
107       0.000090577636
108       0.000021426364
109       0.312204443707
110       0.294868997675
111       0.179439248764
112       0.018390732531
113       0.012625819400
114       0.006795522438
115       0.000603506256
116       0.001448787647
117       0.000494655501
118      -0.001593067955
119      -0.003775263478
120      -0.001288381020
121       0.000331475977
122       0.001339044262
123       0.000463787000
124      -0.000044355527
125       0.000019283384
126       0.000051185477
127      -0.000055168863
128       0.000057770962
129       0.000389000608
130      -0.000338691493
131      -0.000612979744
132       0.000931698179
133      -0.000953687991
134       0.000055695409
135       0.000006070715
136       0.000039834038
137       0.000071753379
138      -0.000092520026
139      -0.000179812079
140      -0.000085383456
141      -0.003366178964
142      -0.000116240914
143      -0.000545382788
144      -0.000189444417
 Sym=     1a
 Ene= -2.03738531126347E+01
 Spin= Alpha
 Occup= 2.000000
  1      -0.244539857137
  2      -0.230989566287
  3      -0.140497315168
  4      -0.014450264329
  5      -0.008806215252
  6      -0.002835055636
  7       0.001357718436
  8       0.000200013623
  9       0.000031119942
 10      -0.003099773178
 11      -0.000449845226
 12      -0.000068644630
 13       0.000200847352
 14       0.000121272993
 15       0.000037021338
 16       0.000117241831
 17       0.000002122008
 18      -0.000055660521
 19      -0.000063933436
 20      -0.000017652103
 21      -0.000717983404
 22       0.000028351444
 23       0.000120333154
 24       0.000923329124
 25       0.000262375933
 26       0.000008707612
 27       0.000150017110
 28       0.000020428916
 29       0.000008779408
 30      -0.000059128873
 31       0.000068805766
 32       0.000033654896
 33       0.001666114829
 34      -0.000162257642
 35      -0.000068421094
 36      -0.000019459753
 37      -0.000014254431
 38      -0.000042908118
 39       0.000156643155
 40       0.001964347016
 41       0.010297654569
 42       0.002399551101
 43       0.000000066003
 44      -0.000001394396
 45      -0.000000494943
 46      -0.000034093350
 47       0.000856159815
 48       0.000303713296
 49       0.000018378202
 50      -0.000460278283
 51      -0.000163279957
 52       0.000177497116
 53       0.000000790858
 54      -0.000119183340
 55      -0.000010254135
 56      -0.000027447506
 57       0.001667942482
 58      -0.000040536506
 59      -0.001137314453
 60      -0.000041182704
 61      -0.000389429144
 62      -0.000028081510
 63       0.000034261490
 64      -0.000014066353
 65      -0.000062737337
 66       0.000114950655
 67       0.000269515835
 68       0.000122971908
 69      -0.003289736557
 70      -0.000009905873
 71       0.000248232205
 72       0.000088058389
 73      -0.210828528311
 74      -0.199149798709
 75      -0.121122285660
 76      -0.012464176533
 77      -0.007454472948
 78      -0.002126619271
 79      -0.000736128967
 80       0.000879640854
 81       0.000332490579
 82       0.001650193220
 83      -0.001965618996
 84      -0.000743127118
 85       0.000001233186
 86       0.000085866425
 87       0.000030324518
 88       0.000103976791
 89       0.000020687689
 90      -0.000073581473
 91      -0.000002013149
 92       0.000041291975
 93      -0.000545291356
 94      -0.000281035006
 95       0.000448333092
 96      -0.000098132876
 97      -0.000711268117
 98       0.000092728340
 99      -0.000076344061
100       0.000066446174
101       0.000045118288
102       0.000067387868
103       0.000022268244
104       0.000024938567
105       0.001312312047
106       0.000046685755
107      -0.000098137457
108      -0.000036060862
109      -0.293331184655
110      -0.277072126082
111      -0.168539330523
112      -0.017324861489
113      -0.010762779549
114      -0.003860257418
115      -0.000607518453
116      -0.001432606046
117      -0.000488817016
118       0.001412765545
119       0.003339065912
120       0.001139410414
121      -0.000195855304
122      -0.000362771470
123      -0.000122554976
124       0.000116490516
125      -0.000010952372
126      -0.000093766597
127       0.000034509576
128      -0.000047481516
129      -0.000636546358
130       0.000250574482
131       0.000709290325
132      -0.000722733308
133       0.000760099064
134      -0.000115532708
135      -0.000052402864
136      -0.000092998941
137      -0.000090844982
138       0.000063535367
139       0.000076564761
140       0.000018419080
141       0.002178160361
142       0.000113464788
143       0.000219385787
144       0.000074260244
 Sym=     1a
 Ene= -1.56703737041080E+01
 Spin= Alpha
 Occup= 2.000000
  1       0.000078646369
  2       0.000094690404
  3       0.000070861879
  4      -0.000607718567
  5      -0.001033123157
  6       0.000912972070
  7       0.000295897215
  8       0.000042806219
  9       0.000006504968
 10      -0.000833745245
 11      -0.000120629411
 12      -0.000018334155
 13      -0.000347570268
 14      -0.000050284086
 15      -0.000007641812
 16      -0.000008311811
 17      -0.000000247728
 18       0.000004429291
 19       0.000003368889
 20       0.000000894644
 21      -0.000308535657
 22       0.000019857651
 23       0.000019237004
 24       0.000474673510
 25       0.000139914403
 26       0.000008047615
 27       0.000149235015
 28       0.000021588310
 29      -0.000009971649
 30      -0.000002931775
 31       0.000177227243
 32       0.000081491228
 33       0.001443131730
 34      -0.000503026543
 35      -0.000072757325
 36      -0.000011053720
 37      -0.449401900367
 38      -0.409393057054
 39      -0.240716304860
 40      -0.020565570896
 41      -0.005850390828
 42      -0.007448270515
 43       0.000000050112
 44      -0.000000209586
 45      -0.000000075590
 46       0.000000150286
 47      -0.000000443690
 48      -0.000000160877
 49      -0.000000005403
 50      -0.000000042984
 51      -0.000000014877
 52       0.000371366039
 53       0.000020056784
 54      -0.000242697186
 55      -0.000042639997
 56      -0.000006978421
 57       0.000734326474
 58       0.000039681578
 59      -0.000479904877
 60      -0.000084311225
 61      -0.000013736909
 62       0.000004509399
 63       0.000081330364
 64       0.000022246989
 65      -0.000106214110
 66       0.000281954235
 67       0.000646359874
 68       0.000306109856
 69      -0.002163977347
 70      -0.000000009712
 71      -0.000000086076
 72      -0.000000029951
 73       0.000078664135
 74       0.000094713158
 75       0.000070866696
 76      -0.000607842472
 77      -0.001033643210
 78       0.000913069853
 79      -0.000184783513
 80       0.000219950754
 81       0.000083158936
 82       0.000520882109
 83      -0.000620023264
 84      -0.000234418006
 85       0.000217051549
 86      -0.000258356937
 87      -0.000097679581
 88      -0.000007960011
 89      -0.000001298583
 90       0.000005526484
 91       0.000000342089
 92      -0.000002342875
 93      -0.000243073063
 94      -0.000170524796
 95       0.000217558686
 96      -0.000075520898
 97      -0.000447029869
 98       0.000089698728
 99      -0.000057291695
100       0.000068201630
101       0.000021146839
102       0.000120831748
103       0.000149683719
104       0.000086775382
105       0.001443339293
106       0.000314158548
107      -0.000373930448
108      -0.000141375981
109       0.000078634059
110       0.000094674260
111       0.000070859500
112      -0.000607642859
113      -0.001032804137
114       0.000912883188
115      -0.000111120766
116      -0.000262750776
117      -0.000089661519
118       0.000313028752
119       0.000740147755
120       0.000252569008
121       0.000130523237
122       0.000308617212
123       0.000105312944
124      -0.000007887470
125       0.000000236738
126       0.000005832747
127      -0.000000935313
128       0.000001888883
129      -0.000232258087
130       0.000108333145
131       0.000275481567
132      -0.000309150651
133       0.000321848897
134      -0.000094395302
135      -0.000030922328
136      -0.000073124760
137      -0.000090874388
138       0.000093610965
139       0.000157980140
140       0.000061368007
141       0.001442853543
142       0.000188888287
143       0.000446642843
144       0.000152413236
 Sym=     1a
 Ene= -1.39531286946591E+00
 Spin= Alpha
 Occup= 2.000000
  1      -0.040336472466
  2      -0.060693454669
  3      -0.039496873732
  4       0.132215771963
  5      -0.192172478255
  6       0.046033795608
  7      -0.062194992457
  8      -0.008995769199
  9      -0.001366674073
 10      -0.063154816636
 11      -0.009134623578
 12      -0.001387774639
 13      -0.001876292476
 14      -0.000270563564
 15      -0.000040939474
 16      -0.002763690005
 17       0.000197207586
 18       0.000075222900
 19       0.004485700646
 20       0.001324366663
 21      -0.007973355408
 22       0.000649820774
 23      -0.000187427439
 24       0.013915434773
 25       0.004117922655
 26       0.000122240831
 27       0.002266930671
 28       0.000327892977
 29      -0.000151145166
 30      -0.000045384970
 31       0.002690500267
 32       0.001237030257
 33      -0.004230273954
 34      -0.000544950891
 35      -0.000079135333
 36      -0.000012085830
 37      -0.076894126942
 38      -0.110534706164
 39      -0.077113400602
 40       0.304066638064
 41      -0.226887924209
 42       0.027874736526
 43      -0.000007728412
 44       0.000027243229
 45       0.000009841534
 46      -0.000002816114
 47       0.000009616927
 48       0.000003476348
 49       0.000000344260
 50      -0.000002503906
 51      -0.000000893025
 52      -0.009814829017
 53      -0.000530292079
 54       0.006414216280
 55       0.001127047820
 56       0.000183847000
 57      -0.001484482612
 58      -0.000080395408
 59       0.000970169196
 60       0.000170450747
 61       0.000027272096
 62      -0.000049242476
 63      -0.000888130110
 64      -0.000242935743
 65       0.001159849646
 66      -0.003078914758
 67      -0.007058203721
 68      -0.003342697404
 69       0.009449473606
 70      -0.000000181040
 71       0.000001076282
 72       0.000000383054
 73      -0.040346417746
 74      -0.060708352470
 75      -0.039506822081
 76       0.132249282720
 77      -0.192218008727
 78       0.046049488309
 79       0.038848051038
 80      -0.046240691244
 81      -0.017482687498
 82       0.039446914526
 83      -0.046953528002
 84      -0.017752195675
 85       0.001173238000
 86      -0.001395822455
 87      -0.000527750439
 88      -0.002142532706
 89      -0.001609363561
 90       0.001957250454
 91      -0.000735433963
 92      -0.004245259347
 93      -0.006035830837
 94      -0.004984135821
 95       0.005681766639
 96      -0.002367616095
 97      -0.013251557129
 98       0.001363006092
 99      -0.000870819304
100       0.001036289779
101       0.000321680617
102       0.001835221333
103       0.002272521670
104       0.001317620784
105      -0.004231665982
106       0.000340143215
107      -0.000405162258
108      -0.000153175522
109      -0.040329461672
110      -0.060682946911
111      -0.039489861334
112       0.132192102551
113      -0.192140240841
114       0.046021672751
115       0.023351840071
116       0.055219945555
117       0.018843390721
118       0.023712403999
119       0.056072517268
120       0.019134324611
121       0.000703491803
122       0.001664598751
123       0.000568043877
124      -0.002039781175
125       0.001036837576
126       0.002506907564
127      -0.002952660953
128       0.003050921965
129      -0.005715848332
130       0.003268427217
131       0.007396415388
132      -0.009282710166
133       0.009502695989
134      -0.001433831286
135      -0.000469925541
136      -0.001110786580
137      -0.001380056218
138       0.001421045231
139       0.002397683657
140       0.000931318696
141      -0.004229056573
142       0.000204826926
143       0.000483994765
144       0.000165156234
 Sym=     1a
 Ene= -1.14191316918477E+00
 Spin= Alpha
 Occup= 2.000000
  1       0.053187728823
  2       0.080213484756
  3       0.053165233414
  4      -0.185614717104
  5       0.242701286734
  6      -0.116005014188
  7       0.042907310836
  8       0.022184314382
  9       0.006592390185
 10       0.040804137678
 11       0.021034545329
 12       0.006247201609
 13       0.012469735515
 14       0.007530538620
 15       0.002298920393
 16       0.002112092411
 17      -0.000585469316
 18      -0.000116480947
 19      -0.003169706359
 20      -0.002221078779
 21       0.006032421214
 22      -0.002072261968
 23      -0.000224866867
 24      -0.009214156689
 25      -0.007484408018
 26      -0.000373011593
 27      -0.002060184721
 28      -0.000623419285
 29       0.000604837254
 30       0.000007588914
 31      -0.002342868784
 32      -0.002575028004
 33      -0.011124029096
 34       0.003852648318
 35      -0.000588762120
 36      -0.000320543824
 37       0.000005722103
 38       0.000008195283
 39       0.000005962030
 40      -0.000022649269
 41       0.000028653152
 42      -0.000007628859
 43      -0.161932340591
 44       0.117104969625
 45       0.046128589032
 46      -0.106546625473
 47       0.077051286597
 48       0.030351132480
 49       0.020813490657
 50      -0.015051415889
 51      -0.005928886776
 52       0.000831949640
 53      -0.004085784701
 54       0.002378216031
 55      -0.006208363758
 56      -0.012107393564
 57       0.001292539665
 58      -0.006349556469
 59       0.003696180530
 60      -0.009648263081
 61      -0.018815561628
 62      -0.001925427439
 63       0.002700285966
 64      -0.001278146525
 65      -0.000940690944
 66      -0.001674315422
 67       0.000384247794
 68      -0.000190985170
 69      -0.000000416369
 70      -0.001482675945
 71       0.001072290232
 72       0.000422385311
 73      -0.074290449077
 74      -0.112038812951
 75      -0.074259401673
 76       0.259260613128
 77      -0.338990249204
 78       0.162041472787
 79       0.035072942843
 80      -0.050349711536
 81      -0.018825431227
 82       0.033361575881
 83      -0.047857239767
 84      -0.017894237149
 85       0.010035487741
 86      -0.015028326677
 87      -0.005606362270
 88      -0.002249763406
 89      -0.001721095487
 90       0.002240851641
 91      -0.001220862764
 92      -0.004577446781
 93      -0.006315221196
 94      -0.005104329670
 95       0.006548030377
 96      -0.003990224362
 97      -0.013659870838
 98       0.001773726526
 99      -0.000948308166
100       0.001336811023
101       0.000514507657
102       0.002652392611
103       0.003740350118
104       0.001591944962
105       0.015539531194
106       0.003529067193
107      -0.003583734664
108      -0.001370055763
109       0.021116475385
110       0.031846204500
111       0.021107459500
112      -0.073691929397
113       0.096357878571
114      -0.046053390991
115      -0.027550343760
116      -0.008304101358
117      -0.002132588218
118      -0.026117941418
119      -0.007924053237
120      -0.002039990409
121      -0.009440905560
122      -0.001949862608
123      -0.000414067520
124       0.000752961462
125      -0.000715220252
126      -0.000365444951
127      -0.000201111511
128      -0.002155923529
129       0.002238007879
130      -0.002425394283
131      -0.000734040936
132      -0.001386156105
133      -0.007309275467
134       0.000448113120
135       0.000415577387
136       0.000513899573
137      -0.000216041139
138      -0.001052423218
139      -0.001766799393
140       0.001166352598
141      -0.004415650014
142       0.000943091557
143      -0.001847623975
144      -0.000680785341
 Sym=     1a
 Ene= -1.14187077943690E+00
 Spin= Alpha
 Occup= 2.000000
  1      -0.055080019160
  2      -0.083067329555
  3      -0.055056896785
  4       0.192220845972
  5      -0.251331949127
  6       0.120141992731
  7      -0.049197849475
  8       0.008310347494
  9       0.004373282429
 10      -0.046765335168
 11       0.007846188541
 12       0.004138217547
 13      -0.014625404323
 14       0.003413974214
 15       0.001633677015
 16      -0.002219778426
 17      -0.000249130282
 18      -0.000057361267
 19       0.003998823015
 20      -0.000058652717
 21      -0.006367855454
 22      -0.001022532383
 23      -0.000426026620
 24       0.012194894478
 25      -0.000986148510
 26      -0.000129837184
 27       0.002279531703
 28       0.000030252851
 29       0.000157238611
 30       0.000321669249
 31       0.003579361513
 32       0.000212120236
 33       0.011523096769
 34      -0.003647733421
 35      -0.001634394960
 36      -0.000471489410
 37       0.000004411931
 38       0.000006307526
 39       0.000004623589
 40      -0.000017697596
 41       0.000021540691
 42      -0.000006402050
 43       0.125726980300
 44       0.153869672691
 45       0.050737689457
 46       0.082733734118
 47       0.101252479891
 48       0.033387447132
 49      -0.016158758582
 50      -0.019775313905
 51      -0.006520792457
 52      -0.001121967953
 53      -0.002561294906
 54      -0.003876713461
 55       0.012122231727
 56      -0.006190594993
 57      -0.001744531282
 58      -0.003981461512
 59      -0.006026005519
 60       0.018843887331
 61      -0.009623023322
 62      -0.002117914170
 63      -0.002207645187
 64      -0.001832983993
 65      -0.001528114163
 66       0.001126494845
 67      -0.000211776229
 68      -0.000369232715
 69      -0.000000604536
 70       0.001150883774
 71       0.001408578132
 72       0.000464469103
 73      -0.018512954351
 74      -0.027919748110
 75      -0.018505272728
 76       0.064607771438
 77      -0.084473897667
 78       0.040383318229
 79       0.027625164141
 80       0.001634594409
 81      -0.000227776093
 82       0.026198679604
 83       0.001505806625
 84      -0.000231706138
 85       0.009270288519
 86       0.001336689886
 87       0.000202240043
 88      -0.000728013814
 89      -0.000623195585
 90      -0.000004647010
 91       0.001417685841
 92      -0.001540222776
 93      -0.002193794380
 94      -0.001991568764
 95      -0.000453576260
 96       0.005383146859
 97      -0.004883579799
 98       0.000329777532
 99      -0.000599552813
100       0.000376819636
101      -0.000757066935
102       0.000541407824
103       0.000087590725
104       0.002077212066
105       0.003873376882
106      -0.000475202694
107      -0.001910139232
108      -0.000661518430
109       0.073603710092
110       0.111003370021
111       0.073572526270
112      -0.256864220886
113       0.335860435330
114      -0.160537830407
115      -0.017568106627
116      -0.057846982926
117      -0.019940943858
118      -0.016724720870
119      -0.054990576766
120      -0.018955583903
121      -0.004785913983
122      -0.017161528109
123      -0.005928329167
124       0.002117946562