[Molden Format]
[Title]
 Molden file created by orca_2mkl for BaseName=/data01/Nikolayandreadi/heavy/CC/Ac_Cl_3

[Atoms] AU
Ac   1  89          0.1831125727         0.2642366259        -0.4541257564 
Cl   2  17         -1.8858314084        -2.6814042210        -4.0108397843 
Cl   3  17         -1.8911509874         4.8213735588         0.2882852806 
Cl   4  17          5.1604546779        -0.1887288387         0.3393626883 
[GTO]
  1 0
s   9 1.0 
 55109808.7412440032     14257.7713661335
 25049913.0642019995     -5151.0918968321
 11386324.1200920008      8141.6734319397
  5175601.8727690000       367.7957557878
  2352546.3058039998      3850.3989281956
  1069339.2299110000      1838.0599913906
   486063.2863230000      2498.2579619160
   220937.8574200000      1918.4911854425
   100426.2988270000      1976.3677811030
s   1 1.0 
    45648.3176490000      2225.7617489804
s   1 1.0 
    20749.2352950000      1232.1445599454
s   1 1.0 
     9431.4705890000       682.0946659463
s   1 1.0 
     4287.0320860000       377.5962240397
s   1 1.0 
     1948.6509480000       209.0309681559
s   1 1.0 
      885.7504310000       115.7160555982
s   1 1.0 
      402.6138320000        64.0584772366
s   1 1.0 
      183.0062870000        35.4617039283
s   1 1.0 
       83.1846760000        19.6310075135
s   1 1.0 
       37.8112160000        10.8673980720
s   1 1.0 
       17.1869170000         6.0160103808
s   1 1.0 
        7.8122350000         3.3303629495
s   1 1.0 
        3.5510160000         1.8436333860
s   1 1.0 
        1.6140980000         1.0206045891
s   1 1.0 
        0.7336810000         0.5649897208
s   1 1.0 
        0.3334910000         0.3127686249
s   1 1.0 
        0.1515870000         0.1731436469
s   1 1.0 
        0.0689030000         0.0958492438
s   1 1.0 
        0.0313200000         0.0530611193
s   1 1.0 
        0.0142360000         0.0293731874
p   8 1.0 
   782789.9000960001    105400.6380222760
   326162.4583730000      9339.8703413204
   135901.0243220000     31114.7166186033
    56625.4268010000     15807.4263964350
    23593.9278340000     15422.4005191925
     9830.8032640000     12674.9472511059
     4096.1680270000     12080.1456614186
     1706.7366780000     11164.2062033065
p   1 1.0 
      711.1402820000      5234.6082754400
p   1 1.0 
      296.3084510000      1752.3471056201
p   1 1.0 
      123.4618550000       586.6189460208
p   1 1.0 
       51.4424390000       196.3776356850
p   1 1.0 
       21.4343500000        65.7397404951
p   1 1.0 
        8.9309790000        22.0071560566
p   1 1.0 
        3.7212410000         7.3671554630
p   1 1.0 
        1.5505170000         2.4662423617
p   1 1.0 
        0.6460490000         0.8256042333
p   1 1.0 
        0.2691870000         0.2763806863
p   1 1.0 
        0.1121610000         0.0925214496
p   1 1.0 
        0.0467340000         0.0309728579
d   7 1.0 
    37896.8365590000     43506.3623126937
    15158.7346230000     21857.0905485274
     6063.4938490000     24630.8084267633
     2425.3975400000     23119.8187386178
      970.1590160000     25018.7518608141
      388.0636060000     22853.9144711695
      155.2254430000     15499.7964819019
d   1 1.0 
       62.0901770000      3915.2559196064
d   1 1.0 
       24.8360710000       787.7077997530
d   1 1.0 
        9.9344280000       158.4784080703
d   1 1.0 
        3.9737710000        31.8841649022
d   1 1.0 
        1.5895090000         6.4147586096
d   1 1.0 
        0.6358030000         1.2905789757
d   1 1.0 
        0.2543210000         0.2596503863
d   1 1.0 
        0.1017290000         0.0522394313
d   1 1.0 
        0.0406910000         0.0105097460
f   6 1.0 
     3860.7881580000     45311.1110738893
     1484.9185220000     38972.8076748077
      571.1225090000     44376.6887792609
      219.6625030000     42822.5096425147
       84.4855780000     30269.0683434645
       32.4944530000     11761.6594792960
f   1 1.0 
       12.4978670000      1674.4834181961
f   1 1.0 
        4.8068720000       195.0701571938
f   1 1.0 
        1.8487970000        22.7248403933
f   1 1.0 
        0.7110760000         2.6473485595
f   1 1.0 
        0.2734910000         0.3084053601
f   1 1.0 
        0.1051890000         0.0359280225

  2 0
s   7 1.0 
    69507.9909450000         4.1142286333
    10426.1568800000         4.2286655222
     2373.2334061000         5.8493829067
      671.5642007100         8.3358677251
      218.4199979000        10.0089622684
       77.5722497100         8.2783277553
       28.8888152800         2.9822029766
s   1 1.0 
      127.1052718500        26.9794296956
s   1 1.0 
       39.3395829600        11.1952141621
s   1 1.0 
        7.6740680000         3.2860890225
s   1 1.0 
        3.8745627600        -1.9682357562
s   1 1.0 
        1.8385832600         1.1253110111
s   1 1.0 
        0.5022905800        -0.4252324193
s   1 1.0 
        0.1796272300         0.1966478587
p   6 1.0 
      666.5042328400        13.1758105786
      157.6424169000        16.0544655669
       50.2625209800        17.4320614645
       18.5360781100        14.3789566857
        7.2940532800         7.6571902731
        2.9433249000         1.9874071930
p   1 1.0 
        1.0404970800         1.4979287975
p   1 1.0 
        0.3845641500        -0.4316692201
p   1 1.0 
        0.1306964300         0.1120133392
d   2 1.0 
        4.6100000000         7.5524217504
        1.0110000000         2.6539585854
d   1 1.0 
        0.3390000000         0.4293579962
f   1 1.0 
        0.7060000000         2.6050175686

  3 0
s   7 1.0 
    69507.9909450000         4.1142286333
    10426.1568800000         4.2286655222
     2373.2334061000         5.8493829067
      671.5642007100         8.3358677251
      218.4199979000        10.0089622684
       77.5722497100         8.2783277553
       28.8888152800         2.9822029766
s   1 1.0 
      127.1052718500        26.9794296956
s   1 1.0 
       39.3395829600        11.1952141621
s   1 1.0 
        7.6740680000         3.2860890225
s   1 1.0 
        3.8745627600        -1.9682357562
s   1 1.0 
        1.8385832600         1.1253110111
s   1 1.0 
        0.5022905800        -0.4252324193
s   1 1.0 
        0.1796272300         0.1966478587
p   6 1.0 
      666.5042328400        13.1758105786
      157.6424169000        16.0544655669
       50.2625209800        17.4320614645
       18.5360781100        14.3789566857
        7.2940532800         7.6571902731
        2.9433249000         1.9874071930
p   1 1.0 
        1.0404970800         1.4979287975
p   1 1.0 
        0.3845641500        -0.4316692201
p   1 1.0 
        0.1306964300         0.1120133392
d   2 1.0 
        4.6100000000         7.5524217504
        1.0110000000         2.6539585854
d   1 1.0 
        0.3390000000         0.4293579962
f   1 1.0 
        0.7060000000         2.6050175686

  4 0
s   7 1.0 
    69507.9909450000         4.1142286333
    10426.1568800000         4.2286655222
     2373.2334061000         5.8493829067
      671.5642007100         8.3358677251
      218.4199979000        10.0089622684
       77.5722497100         8.2783277553
       28.8888152800         2.9822029766
s   1 1.0 
      127.1052718500        26.9794296956
s   1 1.0 
       39.3395829600        11.1952141621
s   1 1.0 
        7.6740680000         3.2860890225
s   1 1.0 
        3.8745627600        -1.9682357562
s   1 1.0 
        1.8385832600         1.1253110111
s   1 1.0 
        0.5022905800        -0.4252324193
s   1 1.0 
        0.1796272300         0.1966478587
p   6 1.0 
      666.5042328400        13.1758105786
      157.6424169000        16.0544655669
       50.2625209800        17.4320614645
       18.5360781100        14.3789566857
        7.2940532800         7.6571902731
        2.9433249000         1.9874071930
p   1 1.0 
        1.0404970800         1.4979287975
p   1 1.0 
        0.3845641500        -0.4316692201
p   1 1.0 
        0.1306964300         0.1120133392
d   2 1.0 
        4.6100000000         7.5524217504
        1.0110000000         2.6539585854
d   1 1.0 
        0.3390000000         0.4293579962
f   1 1.0 
        0.7060000000         2.6050175686

[5D]
[7F]
[9G]
[MO]
 Sym=     1a
 Ene= -3.93450640855373E+03
 Spin= Alpha
 Occup= 2.000000
  1       0.078450254855
  2       0.061820843716
  3       0.107263353843
  4       0.173848743633
  5       0.263579398767
  6       0.308463268280
  7       0.199489011320
  8       0.034065383404
  9       0.000805534738
 10      -0.000550131667
 11       0.000405945974
 12      -0.000306747212
 13       0.000220057636
 14      -0.000148647772
 15       0.000099450152
 16      -0.000067273006
 17       0.000045879905
 18      -0.000030194828
 19       0.000016884163
 20      -0.000006940588
 21       0.000001778813
 22      -0.000000020359
 23      -0.000000028150
 24       0.000000049297
 25       0.000000005180
 26       0.000000007124
 27      -0.000000012480
 28       0.000000001846
 29       0.000000002544
 30      -0.000000004451
 31       0.000000002969
 32       0.000000004083
 33      -0.000000007160
 34      -0.000000005509
 35      -0.000000007580
 36       0.000000013295
 37       0.000000009324
 38       0.000000012829
 39      -0.000000022505
 40      -0.000000016058
 41      -0.000000022093
 42       0.000000038757
 43       0.000000025739
 44       0.000000035400
 45      -0.000000062116
 46      -0.000000039860
 47      -0.000000054784
 48       0.000000096177
 49       0.000000053772
 50       0.000000073776
 51      -0.000000129676
 52      -0.000000036436
 53      -0.000000049706
 54       0.000000087695
 55      -0.000000027814
 56      -0.000000038612
 57       0.000000067374
 58       0.000000040551
 59       0.000000056077
 60      -0.000000097954
 61       0.000000001059
 62      -0.000000001016
 63      -0.000000001403
 64      -0.000000000195
 65       0.000000000582
 66       0.000000007259
 67      -0.000000006951
 68      -0.000000009604
 69      -0.000000001324
 70       0.000000003991
 71      -0.000000022441
 72       0.000000021497
 73       0.000000029700
 74       0.000000004096
 75      -0.000000012333
 76       0.000000040373
 77      -0.000000038677
 78      -0.000000053437
 79      -0.000000007369
 80       0.000000022187
 81      -0.000000074035
 82       0.000000070928
 83       0.000000097996
 84       0.000000013515
 85      -0.000000040685
 86       0.000000136310
 87      -0.000000130597
 88      -0.000000180433
 89      -0.000000024891
 90       0.000000074902
 91      -0.000000241151
 92       0.000000231079
 93       0.000000319236
 94       0.000000044073
 95      -0.000000132490
 96       0.000000335870
 97      -0.000000321917
 98      -0.000000444683
 99      -0.000000061468
100       0.000000184479
101      -0.000000168656
102       0.000000161577
103       0.000000223242
104       0.000000030805
105      -0.000000092664
106      -0.000000030003
107       0.000000028733
108       0.000000039753
109       0.000000005424
110      -0.000000016453
111      -0.000000001676
112      -0.000000004396
113      -0.000000006329
114       0.000000002282
115      -0.000000006073
116      -0.000000011497
117       0.000000003287
118       0.000000005189
119       0.000000013580
120       0.000000019555
121      -0.000000007062
122       0.000000018800
123       0.000000035556
124      -0.000000010166
125      -0.000000011382
126      -0.000000029744
127      -0.000000042833
128       0.000000015488
129      -0.000000041234
130      -0.000000077932
131       0.000000022283
132       0.000000023149
133       0.000000060462
134       0.000000087069
135      -0.000000031501
136       0.000000083868
137       0.000000158462
138      -0.000000045308
139      -0.000000048006
140      -0.000000125400
141      -0.000000180561
142       0.000000065340
143      -0.000000173942
144      -0.000000328626
145       0.000000093962
146       0.000000089509
147       0.000000232736
148       0.000000335042
149      -0.000000121867
150       0.000000324417
151       0.000000611320
152      -0.000000174784
153      -0.000000059265
154      -0.000000142110
155      -0.000000205034
156       0.000000080363
157      -0.000000214816
158      -0.000000389361
159       0.000000111269
160       0.000000012370
161      -0.000000013297
162       0.000000010948
163      -0.000000089017
164      -0.000000190540
165      -0.000000173370
166       0.000000031005
167      -0.000000171627
168       0.000000011452
169       0.000000016303
170       0.000000019825
171      -0.000000079850
172      -0.000000113676
173      -0.000000137758
174      -0.000000165467
175      -0.000000235559
176      -0.000000284549
177      -0.000000039981
178      -0.000000056952
179      -0.000000085123
180      -0.000000010800
181      -0.000000030598
182      -0.000000043442
183       0.000000007292
184      -0.000000020045
185       0.000000089053
186       0.000000211753
187       0.000000301111
188      -0.000000058160
189       0.000000160765
190      -0.000000018749
191       0.000000040465
192       0.000000057574
193      -0.000000024267
194       0.000000067210
195       0.000000029102
196      -0.000000007954
197       0.000000012343
198      -0.000000013266
199       0.000000010921
200      -0.000000088787
201      -0.000000189990
202      -0.000000172724
203       0.000000031566
204      -0.000000171486
205       0.000000011493
206      -0.000000025363
207      -0.000000004042
208      -0.000000080057
209       0.000000176270
210       0.000000028395
211      -0.000000165620
212       0.000000363896
213       0.000000059207
214      -0.000000040182
215       0.000000102276
216       0.000000006089
217       0.000000029476
218       0.000000001851
219      -0.000000016279
220       0.000000030520
221       0.000000036733
222      -0.000000200413
223      -0.000000031689
224       0.000000105101
225      -0.000000224717
226      -0.000000264465
227       0.000000021462
228      -0.000000022705
229       0.000000054079
230       0.000000018961
231       0.000000020558
232       0.000000078225
233      -0.000000024087
234       0.000000012368
235      -0.000000013295
236       0.000000010946
237      -0.000000088998
238      -0.000000190491
239      -0.000000173305
240       0.000000031091
241      -0.000000171645
242      -0.000000027672
243       0.000000002471
244      -0.000000004324
245       0.000000192530
246      -0.000000017356
247       0.000000030384
248       0.000000398126
249      -0.000000036209
250       0.000000063403
251       0.000000109668
252      -0.000000004156
253       0.000000007212
254       0.000000029167
255      -0.000000016950
256      -0.000000003494
257      -0.000000046430
258       0.000000009691
259      -0.000000198603
260       0.000000116781
261       0.000000003997
262       0.000000339385
263      -0.000000066704
264       0.000000022848
265       0.000000057400
266      -0.000000003487
267      -0.000000029529
268       0.000000004582
269       0.000000078514
270      -0.000000021133
 Sym=     1a
 Ene= -7.33660278792669E+02
 Spin= Alpha
 Occup= 2.000000
  1      -0.032585827794
  2      -0.027686207944
  3      -0.047061529462
  4      -0.083446577258
  5      -0.136668173160
  6      -0.181020259358
  7      -0.086605661299
  8       0.351893697434
  9       0.621414333039
 10       0.184147904073
 11      -0.002404610556
 12       0.002460771644
 13      -0.001418748179
 14       0.000795238013
 15      -0.000478741421
 16       0.000314611337
 17      -0.000211888479
 18       0.000138289414
 19      -0.000077194485
 20       0.000031710687
 21      -0.000008121557
 22       0.000000140970
 23       0.000000193648
 24      -0.000000339342
 25       0.000000196469
 26       0.000000269598
 27      -0.000000472514
 28       0.000000346152
 29       0.000000474830
 30      -0.000000832074
 31       0.000000224164
 32       0.000000307436
 33      -0.000000538948
 34       0.000000058709
 35       0.000000080809
 36      -0.000000141814
 37      -0.000000025830
 38      -0.000000035561
 39       0.000000062494
 40       0.000000072230
 41       0.000000099433
 42      -0.000000174453
 43      -0.000000115276
 44      -0.000000158576
 45       0.000000278257
 46       0.000000173078
 47       0.000000237877
 48      -0.000000417637
 49      -0.000000240462
 50      -0.000000329952
 51       0.000000579939
 52       0.000000165608
 53       0.000000225990
 54      -0.000000398639
 55       0.000000125512
 56       0.000000174243
 57      -0.000000304027
 58      -0.000000184222
 59      -0.000000254771
 60       0.000000445015
 61       0.000000020497
 62      -0.000000019454
 63      -0.000000026849
 64      -0.000000003778
 65       0.000000011306
 66       0.000000021602
 67      -0.000000020773
 68      -0.000000028686
 69      -0.000000003971
 70       0.000000011832
 71       0.000000133026
 72      -0.000000127398
 73      -0.000000176010
 74      -0.000000024295
 75       0.000000073113
 76      -0.000000176813
 77       0.000000169360
 78       0.000000233997
 79       0.000000032269
 80      -0.000000097177
 81       0.000000315870
 82      -0.000000302600
 83      -0.000000418089
 84      -0.000000057649
 85       0.000000173587
 86      -0.000000611485
 87       0.000000585850
 88       0.000000809414
 89       0.000000111652
 90      -0.000000336013
 91       0.000001088345
 92      -0.000001042874
 93      -0.000001440739
 94      -0.000000198895
 95       0.000000597952
 96      -0.000001519309
 97       0.000001456168
 98       0.000002011504
 99       0.000000278026
100      -0.000000834506
101       0.000000766553
102      -0.000000734362
103      -0.000001014637
104      -0.000000139996
105       0.000000421173
106       0.000000135804
107      -0.000000130054
108      -0.000000179935
109      -0.000000024548
110       0.000000074471
111      -0.000000012145
112      -0.000000033083
113      -0.000000047543
114       0.000000016596
115      -0.000000044047
116      -0.000000084877
117       0.000000024274
118      -0.000000019755
119      -0.000000051334
120      -0.000000073942
121       0.000000026870
122      -0.000000071566
123      -0.000000134894
124       0.000000038568
125       0.000000052963
126       0.000000138422
127       0.000000199334
128      -0.000000072074
129       0.000000191885
130       0.000000362665
131      -0.000000103695
132      -0.000000103478
133      -0.000000270198
134      -0.000000389113
135       0.000000140806
136      -0.000000374894
137      -0.000000708247
138       0.000000202506
139       0.000000215517
140       0.000000562906
141       0.000000810528
142      -0.000000293330
143       0.000000780889
144       0.000001475255
145      -0.000000421812
146      -0.000000404983
147      -0.000001053022
148      -0.000001515925
149       0.000000551381
150      -0.000001467820
151      -0.000002765938
152       0.000000790817
153       0.000000268524
154       0.000000643967
155       0.000000929115
156      -0.000000364112
157       0.000000973305
158       0.000001764268
159      -0.000000504182
160      -0.000000033230
161       0.000000042248
162      -0.000000052254
163       0.000000391463
164       0.000000855648
165       0.000000788720
166      -0.000000126611
167       0.000000801491
168      -0.000000051932
169      -0.000000073931
170      -0.000000089942
171       0.000000361141
172       0.000000514122
173       0.000000622933
174       0.000000751335
175       0.000001069595
176       0.000001291535
177       0.000000188383
178       0.000000268340
179       0.000000397943
180       0.000000047622
181       0.000000135875
182       0.000000192897
183      -0.000000032255
184       0.000000088651
185      -0.000000401853
186      -0.000000956098
187      -0.000001359559
188       0.000000262639
189      -0.000000725985
190       0.000000083862
191      -0.000000181033
192      -0.000000257575
193       0.000000108524
194      -0.000000300562
195      -0.000000130202
196       0.000000035586
197      -0.000000033157
198       0.000000042152
199      -0.000000052129
200       0.000000390468
201       0.000000853220
202       0.000000785831
203      -0.000000129167
204       0.000000800829
205      -0.000000052122
206       0.000000115056
207       0.000000018309
208       0.000000362085
209      -0.000000797146
210      -0.000000128478
211       0.000000752040
212      -0.000001651915
213      -0.000000269099
214       0.000000189306
215      -0.000000479167
216      -0.000000030274
217      -0.000000130938
218      -0.000000007911
219       0.000000072488
220      -0.000000135240
221      -0.000000162947
222       0.000000904856
223       0.000000143178
224      -0.000000474750
225       0.000001014516
226       0.000001194175
227      -0.000000095991
228       0.000000101498
229      -0.000000241963
230      -0.000000084820
231      -0.000000091922
232      -0.000000349930
233       0.000000107745
234      -0.000000033222
235       0.000000042240
236      -0.000000052245
237       0.000000391374
238       0.000000855418
239       0.000000788418
240      -0.000000127011
241       0.000000801562
242       0.000000125520
243      -0.000000011193
244       0.000000019590
245      -0.000000870671
246       0.000000078525
247      -0.000000137471
248      -0.000001807338
249       0.000000164557
250      -0.000000288146
251      -0.000000514148
252       0.000000020463
253      -0.000000035539
254      -0.000000129556
255       0.000000075346
256       0.000000015870
257       0.000000205825
258      -0.000000043081
259       0.000000896667
260      -0.000000527498
261      -0.000000018022
262      -0.000001532301
263       0.000000301301
264      -0.000000102181
265      -0.000000256777
266       0.000000015517
267       0.000000132062
268      -0.000000020460
269      -0.000000351195
270       0.000000094532
 Sym=     1a
 Ene= -6.21576501943198E+02
 Spin= Alpha
 Occup= 2.000000
  1      -0.000000000057
  2      -0.000000000047
  3      -0.000000000088
  4      -0.000000000124
  5      -0.000000000281
  6      -0.000000000216
  7      -0.000000000448
  8       0.000000001062
  9      -0.000000000270
 10       0.000000003623
 11      -0.000000005322
 12       0.000000008325
 13      -0.000000014161
 14       0.000000023396
 15      -0.000000039844
 16       0.000000071845
 17      -0.000000120902
 18       0.000000141186
 19      -0.000000092997
 20       0.000000029843
 21      -0.000000006493
 22       0.118249805299
 23       0.081874993794
 24       0.096050522518
 25       0.205452563294
 26       0.142253319495
 27       0.166882524601
 28       0.313566623589
 29       0.217110424364
 30       0.254700107364
 31       0.167279897829
 32       0.115822944004
 33       0.135876093166
 34       0.006040219069
 35       0.004182189477
 36       0.004906278335
 37       0.003005832890
 38       0.002081206121
 39       0.002441537832
 40      -0.002093751851
 41      -0.001449688222
 42      -0.001700680912
 43       0.001293106863
 44       0.000895326273
 45       0.001050338169
 46      -0.000792327172
 47      -0.000548586303
 48      -0.000643563662
 49       0.000492912982
 50       0.000341269595
 51       0.000400349136
 52      -0.000306597698
 53      -0.000212273466
 54      -0.000249004066
 55       0.000176164237
 56       0.000121985203
 57       0.000143062622
 58      -0.000037146830
 59      -0.000025720010
 60      -0.000030174251
 61      -0.000000617785
 62      -0.000000285090
 63      -0.000000377108
 64       0.000000324082
 65      -0.000000174243
 66       0.000000385906
 67       0.000000172559
 68       0.000000487685
 69      -0.000000489712
 70       0.000000611449
 71      -0.000000996956
 72      -0.000000451683
 73      -0.000001011360
 74       0.000000981405
 75      -0.000001083861
 76       0.000001727230
 77       0.000000784429
 78       0.000001679965
 79      -0.000001617617
 80       0.000001733359
 81      -0.000003159155
 82      -0.000001435914
 83      -0.000003028313
 84       0.000002907851
 85      -0.000003081581
 86       0.000005934020
 87       0.000002697395
 88       0.000005680819
 89      -0.000005453471
 90       0.000005773337
 91      -0.000011206731
 92      -0.000005094071
 93      -0.000010732953
 94       0.000010304304
 95      -0.000010912126
 96       0.000020139914
 97       0.000009152503
 98       0.000019302326
 99      -0.000018534363
100       0.000019649459
101      -0.000032723106
102      -0.000014859257
103      -0.000031398045
104       0.000030158232
105      -0.000032062242
106       0.000006874811
107       0.000003128497
108       0.000006301709
109      -0.000006004326
110       0.000006153627
111       0.000000047987
112       0.000000003243
113       0.000000009041
114      -0.000000010375
115      -0.000000004765
116      -0.000000013980
117      -0.000000005968
118       0.000000045962
119      -0.000000009073
120      -0.000000120417
121       0.000000025947
122      -0.000000132989
123       0.000000129636
124      -0.000000025949
125      -0.000000198297
126       0.000000018292
127       0.000000298070
128      -0.000000050302
129       0.000000353487
130      -0.000000313650
131       0.000000077126
132       0.000000503093
133      -0.000000036645
134      -0.000000652580
135       0.000000098768
136      -0.000000793719
137       0.000000680702
138      -0.000000179374
139      -0.000001256967
140       0.000000085460
141       0.000001567695
142      -0.000000229544
143       0.000001920380
144      -0.000001631513
145       0.000000438710
146       0.000003068075
147      -0.000000211952
148      -0.000003865134
149       0.000000572106
150      -0.000004725140
151       0.000004029400
152      -0.000001078875
153      -0.000006518525
154       0.000000516022
155       0.000008875392
156      -0.000001410440
157       0.000010702622
158      -0.000009353850
159       0.000002411510
160      -0.000000337088
161       0.000000433315
162      -0.000000559008
163       0.000004053914
164       0.000008580122
165       0.000007685366
166       0.000008218434
167       0.000043527925
168      -0.000000707442
169      -0.000000998855
170      -0.000001222697
171       0.000003448023
172       0.000004759842
173       0.000005834202
174       0.000002740695
175       0.000003203755
176       0.000004028595
177       0.000013889508
178       0.000018060678
179       0.000021511418
180       0.000001549574
181       0.000002566431
182       0.000003739642
183      -0.000001051550
184       0.000002249945
185      -0.000003560768
186      -0.000006108183
187      -0.000008544328
188       0.000002325474
189      -0.000005382946
190       0.000001961922
191      -0.000004082575
192      -0.000005917663
193       0.000002739949
194      -0.000007275134
195      -0.000003038906
196       0.000000683571
197       0.000000081110
198      -0.000000104269
199       0.000000134526
200      -0.000000975827
201      -0.000002066283
202      -0.000001853548
203      -0.000001998895
204      -0.000010511484
205       0.000000155201
206      -0.000000378899
207      -0.000000067603
208      -0.000000571035
209       0.000001870490
210       0.000000435923
211       0.000000536980
212       0.000001629212
213       0.000000910098
214      -0.000000440436
215       0.000007713252
216       0.000002944043
217       0.000000993614
218       0.000000318571
219       0.000000120876
220       0.000000256958
221       0.000001062381
222      -0.000002254555
223      -0.000000887644
224       0.000000148749
225      -0.000001079737
226      -0.000001892055
227       0.000000546490
228      -0.000000793598
229       0.000001437607
230       0.000000135551
231       0.000000439579
232       0.000002099925
233      -0.000000153260
234       0.000000255535
235      -0.000000328480
236       0.000000423762
237      -0.000003073103
238      -0.000006504219
239      -0.000005826092
240      -0.000006235143
241      -0.000033009622
242      -0.000001291302
243       0.000000103821
244      -0.000000205443
245       0.000006176161
246      -0.000000376395
247       0.000001075060
248       0.000004320136
249       0.000000406657
250       0.000001226857
251       0.000023263378
252      -0.000000343263
253       0.000005352319
254       0.000002125614
255      -0.000000760953
256       0.000000441438
257      -0.000003306274
258       0.000000898452
259      -0.000004866923
260       0.000002123184
261      -0.000001066468
262       0.000007699827
263      -0.000001576286
264       0.000001871565
265       0.000004621143
266      -0.000000559464
267      -0.000002183439
268       0.000000568187
269       0.000006176186
270      -0.000002005625
 Sym=     1a
 Ene= -6.21576501879392E+02
 Spin= Alpha
 Occup= 2.000000
  1      -0.000000000194
  2      -0.000000000162
  3      -0.000000000289
  4      -0.000000000469
  5      -0.000000000880
  6      -0.000000000939
  7      -0.000000000840
  8       0.000000003055
  9       0.000000001937
 10       0.000000004260
 11      -0.000000005931
 12       0.000000009474
 13      -0.000000016207
 14       0.000000027709
 15      -0.000000050364
 16       0.000000099126
 17      -0.000000178875
 18       0.000000207968
 19      -0.000000128157
 20       0.000000041491
 21      -0.000000011584
 22      -0.111800451675
 23       0.129027549687
 24       0.027654735340
 25      -0.194247164296
 26       0.224178303859
 27       0.048048588655
 28      -0.296464675700
 29       0.342146298699
 30       0.073332907435
 31      -0.158156438059
 32       0.182526432715
 33       0.039121259180
 34      -0.005710787475
 35       0.006590753121
 36       0.001412609760
 37      -0.002841889992
 38       0.003279786783
 39       0.000702962854
 40       0.001979550500
 41      -0.002284568177
 42      -0.000489655354
 43      -0.001222567126
 44       0.001410937906
 45       0.000302407933
 46       0.000749090884
 47      -0.000864497093
 48      -0.000185287389
 49      -0.000465994413
 50       0.000537770554
 51       0.000115258333