[Molden Format]
[Title]
 Molden file created by orca_2mkl for BaseName=/data01/Nikolayandreadi/heavy/cations/U_4+

[Atoms] AU
U    1  92          0.0415890928         1.5388172189        -3.6027401976 
[GTO]
  1 0
s   9 1.0 
 58915269.2040619999     15878.5363952950
 26779667.8200279996     -5784.7557541551
 12172576.2818310000      9027.3946318877
  5532989.2190140001       325.6868040056
  2514995.0995519999      4208.1243710139
  1143179.5907050001      1939.1491289669
   519627.0866840000      2669.4311026285
   236194.1303110000      2005.5172738201
   107360.9683230000      2058.9530636601
s   1 1.0 
    48800.4401470000      2340.0648682401
s   1 1.0 
    22182.0182490000      1295.4208592531
s   1 1.0 
    10082.7355680000       717.1233692609
s   1 1.0 
     4583.0616220000       396.9875296292
s   1 1.0 
     2083.2098280000       219.7656713216
s   1 1.0 
      946.9135580000       121.6586080998
s   1 1.0 
      430.4152540000        67.3481752053
s   1 1.0 
      195.6432970000        37.2828258248
s   1 1.0 
       88.9287710000        20.6391501245
s   1 1.0 
       40.4221690000        11.4254891526
s   1 1.0 
       18.3737130000         6.3249600754
s   1 1.0 
        8.3516880000         3.5013924304
s   1 1.0 
        3.7962220000         1.9383124866
s   1 1.0 
        1.7255550000         1.0730172334
s   1 1.0 
        0.7843430000         0.5940043302
s   1 1.0 
        0.3565200000         0.3288311987
s   1 1.0 
        0.1620540000         0.1820350044
s   1 1.0 
        0.0736610000         0.1007716339
s   1 1.0 
        0.0334820000         0.0557851540
s   1 1.0 
        0.0152190000         0.0308815919
p   8 1.0 
   839813.6669700000    124700.6825327761
   349922.3612380000     10799.0830937165
   145800.9838490000     36359.2991195727
    60750.4099370000     18163.2607860982
    25312.6708070000     17573.6487977577
    10546.9461700000     14195.6918408552
     4394.5609040000     13322.9302572221
     1831.0670430000     12107.7084625556
p   1 1.0 
      762.9446010000      5715.5278197986
p   1 1.0 
      317.8935840000      1913.3406184205
p   1 1.0 
      132.4556600000       640.5134283167
p   1 1.0 
       55.1898580000       214.4194529751
p   1 1.0 
       22.9957740000        71.7794502225
p   1 1.0 
        9.5815730000        24.0290224861
p   1 1.0 
        3.9923220000         8.0439996005
p   1 1.0 
        1.6634670000         2.6928231053
p   1 1.0 
        0.6931110000         0.9014540144
p   1 1.0 
        0.2887960000         0.3017720791
p   1 1.0 
        0.1203320000         0.1010221266
p   1 1.0 
        0.0501380000         0.0338180721
d   7 1.0 
    41049.8202270000     53262.0337640016
    16419.9280910000     26338.4031025142
     6567.9712360000     29332.4246479962
     2627.1884950000     27101.6066256769
     1050.8753980000     28990.3214062957
      420.3501590000     26289.6282344813
      168.1400640000     17820.8132210096
d   1 1.0 
       67.2560250000      4502.9764563892
d   1 1.0 
       26.9024100000       905.9509006942
d   1 1.0 
       10.7609640000       182.2676717095
d   1 1.0 
        4.3043860000        36.6703201328
d   1 1.0 
        1.7217540000         7.3776748265
d   1 1.0 
        0.6887020000         1.4843111023
d   1 1.0 
        0.2754810000         0.2986279634
d   1 1.0 
        0.1101920000         0.0600803838
d   1 1.0 
        0.0440770000         0.0120876293
f   6 1.0 
     4391.9602590000     58042.2322349557
     1689.2154840000     50234.6786083959
      649.6982630000     55932.1636963999
      249.8839470000     54589.9728655915
       96.1092110000     39385.8448814677
       36.9650810000     15829.5183325708
f   1 1.0 
       14.2173390000      2237.9031973610
f   1 1.0 
        5.4682070000       260.7061095750
f   1 1.0 
        2.1031570000        30.3711607432
f   1 1.0 
        0.8089060000         3.5381049160
f   1 1.0 
        0.3111180000         0.4121749941
f   1 1.0 
        0.1196610000         0.0480168308

[5D]
[7F]
[9G]
[MO]
 Sym=     1a
 Ene= -4.26175424260756E+03
 Spin= Alpha
 Occup= 1.000000
  1       0.084983984761
  2       0.065169477790
  3       0.111711696852
  4       0.177550178156
  5       0.264431350484
  6       0.303181818980
  7       0.192924205141
  8       0.032220556330
  9       0.000868970186
 10      -0.000612009262
 11       0.000447008626
 12      -0.000331562593
 13       0.000235782114
 14      -0.000158588711
 15       0.000104852686
 16      -0.000068950313
 17       0.000044473031
 18      -0.000027506532
 19       0.000015542243
 20      -0.000007117896
 21       0.000001917460
 22      -0.000000000000
 23       0.000000000000
 24      -0.000000000000
 25       0.000000000000
 26      -0.000000000000
 27       0.000000000000
 28      -0.000000000000
 29       0.000000000000
 30      -0.000000000000
 31       0.000000000000
 32      -0.000000000000
 33       0.000000000000
 34      -0.000000000000
 35       0.000000000000
 36      -0.000000000000
 37       0.000000000000
 38      -0.000000000000
 39       0.000000000000
 40       0.000000000000
 41       0.000000000001
 42      -0.000000000000
 43      -0.000000000000
 44      -0.000000000002
 45      -0.000000000000
 46       0.000000000000
 47       0.000000000002
 48       0.000000000000
 49      -0.000000000000
 50      -0.000000000002
 51      -0.000000000000
 52       0.000000000000
 53       0.000000000001
 54       0.000000000000
 55      -0.000000000000
 56      -0.000000000000
 57      -0.000000000000
 58       0.000000000000
 59       0.000000000000
 60       0.000000000000
 61      -0.000000007535
 62       0.000000025148
 63       0.000000024441
 64      -0.000000018406
 65      -0.000000043624
 66       0.000000005969
 67      -0.000000020004
 68      -0.000000019508
 69       0.000000014585
 70       0.000000034728
 71      -0.000000003974
 72       0.000000013252
 73       0.000000012877
 74      -0.000000009706
 75      -0.000000022989
 76       0.000000002286
 77      -0.000000007646
 78      -0.000000007446
 79       0.000000005586
 80       0.000000013270
 81      -0.000000001215
 82       0.000000004073
 83       0.000000003972
 84      -0.000000002970
 85      -0.000000007071
 86       0.000000000699
 87      -0.000000002330
 88      -0.000000002263
 89       0.000000001709
 90       0.000000004041
 91      -0.000000000410
 92       0.000000001375
 93       0.000000001340
 94      -0.000000001003
 95      -0.000000002386
 96       0.000000000212
 97      -0.000000000708
 98      -0.000000000689
 99       0.000000000518
100       0.000000001229
101      -0.000000000102
102       0.000000000340
103       0.000000000331
104      -0.000000000248
105      -0.000000000590
106       0.000000000034
107      -0.000000000115
108      -0.000000000112
109       0.000000000084
110       0.000000000199
111      -0.000000000000
112       0.000000000000
113      -0.000000000000
114       0.000000000000
115      -0.000000000000
116       0.000000000000
117      -0.000000000000
118       0.000000000000
119      -0.000000000000
120       0.000000000000
121      -0.000000000000
122       0.000000000000
123      -0.000000000000
124       0.000000000000
125      -0.000000000000
126       0.000000000000
127      -0.000000000000
128       0.000000000000
129      -0.000000000000
130       0.000000000000
131      -0.000000000000
132       0.000000000000
133      -0.000000000000
134       0.000000000000
135      -0.000000000000
136       0.000000000000
137      -0.000000000000
138       0.000000000000
139      -0.000000000000
140      -0.000000000000
141       0.000000000000
142      -0.000000000000
143      -0.000000000000
144       0.000000000000
145      -0.000000000000
146       0.000000000000
147       0.000000000000
148      -0.000000000000
149       0.000000000000
150      -0.000000000000
151      -0.000000000000
152      -0.000000000000
153      -0.000000000000
154      -0.000000000000
155       0.000000000000
156      -0.000000000000
157       0.000000000000
158      -0.000000000000
159       0.000000000000
 Sym=     1a
 Ene= -8.05699240864395E+02
 Spin= Alpha
 Occup= 1.000000
  1       0.035877251309
  2       0.029714000959
  3       0.049765116989
  4       0.086683518887
  5       0.138727654397
  6       0.177778039394
  7       0.072231998891
  8      -0.369149202599
  9      -0.610972433178
 10      -0.169935300287
 11       0.002086898122
 12      -0.001800903051
 13       0.000964308568
 14      -0.000497793232
 15       0.000276494235
 16      -0.000172515968
 17       0.000109126986
 18      -0.000066493060
 19       0.000037376430
 20      -0.000017076678
 21       0.000004595336
 22       0.000000000001
 23       0.000000000001
 24      -0.000000000001
 25       0.000000000001
 26       0.000000000001
 27      -0.000000000002
 28       0.000000000003
 29       0.000000000002
 30      -0.000000000004
 31      -0.000000000001
 32       0.000000000002
 33      -0.000000000003
 34       0.000000000001
 35      -0.000000000001
 36       0.000000000001
 37      -0.000000000000
 38       0.000000000004
 39      -0.000000000001
 40      -0.000000000001
 41      -0.000000000012
 42       0.000000000000
 43       0.000000000003
 44       0.000000000043
 45       0.000000000001
 46      -0.000000000005
 47      -0.000000000052
 48      -0.000000000002
 49       0.000000000004
 50       0.000000000037
 51       0.000000000001
 52      -0.000000000002
 53      -0.000000000021
 54      -0.000000000001
 55       0.000000000001
 56       0.000000000010
 57       0.000000000000
 58      -0.000000000000
 59      -0.000000000003
 60      -0.000000000000
 61       0.000000524645
 62      -0.000001755731
 63      -0.000001709571
 64       0.000001282027
 65       0.000003046826
 66       0.000000084455
 67      -0.000000283640
 68      -0.000000278872
 69       0.000000205602
 70       0.000000494345
 71      -0.000000056770
 72       0.000000188089
 73       0.000000183967
 74      -0.000000137611
 75      -0.000000327898
 76       0.000000020464
 77      -0.000000068356
 78      -0.000000067294
 79       0.000000049610
 80       0.000000119361
 81      -0.000000006666
 82       0.000000022555
 83       0.000000022477
 84      -0.000000016132
 85      -0.000000039534
 86       0.000000005254
 87      -0.000000017392
 88      -0.000000017003
 89       0.000000012713
 90       0.000000030323
 91      -0.000000003382
 92       0.000000011403
 93       0.000000011234
 94      -0.000000008222
 95      -0.000000019876
 96       0.000000001665
 97      -0.000000005567
 98      -0.000000005469
 99       0.000000004038
100       0.000000009707
101      -0.000000000794
102       0.000000002657
103       0.000000002613
104      -0.000000001925
105      -0.000000004635
106       0.000000000268
107      -0.000000000895
108      -0.000000000881
109       0.000000000649
110       0.000000001562
111       0.000000000006
112      -0.000000000000
113       0.000000000002
114      -0.000000000001
115       0.000000000006
116      -0.000000000010
117      -0.000000000000
118      -0.000000000005
119      -0.000000000000
120      -0.000000000001
121       0.000000000001
122      -0.000000000004
123       0.000000000008
124      -0.000000000000
125       0.000000000003
126       0.000000000000
127       0.000000000001
128      -0.000000000000
129       0.000000000003
130      -0.000000000005
131      -0.000000000001
132      -0.000000000002
133      -0.000000000000
134      -0.000000000000
135       0.000000000000
136      -0.000000000001
137       0.000000000003
138       0.000000000001
139       0.000000000001
140       0.000000000000
141       0.000000000000
142       0.000000000000
143       0.000000000000
144      -0.000000000001
145      -0.000000000001
146      -0.000000000001
147      -0.000000000000
148       0.000000000000
149       0.000000000000
150       0.000000000000
151       0.000000000001
152       0.000000000003
153      -0.000000000000
154       0.000000000000
155      -0.000000000000
156       0.000000000000
157      -0.000000000000
158       0.000000000000
159      -0.000000000001
 Sym=     1a
 Ene= -6.76357291857061E+02
 Spin= Alpha
 Occup= 1.000000
  1      -0.000000000000
  2      -0.000000000000
  3      -0.000000000000
  4      -0.000000000000
  5      -0.000000000000
  6      -0.000000000000
  7      -0.000000000000
  8       0.000000000001
  9      -0.000000000000
 10       0.000000000002
 11      -0.000000000005
 12       0.000000000008
 13      -0.000000000013
 14       0.000000000026
 15      -0.000000000030
 16       0.000000000014
 17       0.000000000009
 18      -0.000000000019
 19       0.000000000015
 20      -0.000000000006
 21       0.000000000001
 22      -0.090533851490
 23       0.151618213218
 24       0.023456214895
 25      -0.154114749234
 26       0.258097965717
 27       0.039929248805
 28      -0.232241135610
 29       0.388937238543
 30       0.060170840223
 31      -0.122151245820
 32       0.204568269757
 33       0.031647896765
 34      -0.004097354120
 35       0.006861889538
 36       0.001061575451
 37      -0.002224930675
 38       0.003726122121
 39       0.000576451570
 40       0.001539135567
 41      -0.002577611218
 42      -0.000398770827
 43      -0.000944932529
 44       0.001582491019
 45       0.000244820356
 46       0.000567476255
 47      -0.000950359966
 48      -0.000147026108
 49      -0.000336172507
 50       0.000562992621
 51       0.000087098121
 52       0.000187954867
 53      -0.000314770524
 54      -0.000048696780
 55      -0.000090857357
 56       0.000152160028
 57       0.000023540017
 58       0.000028440514
 59      -0.000047629709
 60      -0.000007368586
 61       0.000000000001
 62      -0.000000000000
 63       0.000000000001
 64       0.000000000000
 65      -0.000000000000
 66      -0.000000000002
 67      -0.000000000001
 68      -0.000000000000
 69       0.000000000000
 70      -0.000000000001
 71       0.000000000006
 72       0.000000000001
 73      -0.000000000001
 74      -0.000000000001
 75       0.000000000000
 76      -0.000000000008
 77      -0.000000000001
 78       0.000000000003
 79      -0.000000000000
 80      -0.000000000000
 81       0.000000000005
 82       0.000000000000
 83      -0.000000000002
 84       0.000000000000
 85       0.000000000000
 86      -0.000000000003
 87      -0.000000000000
 88       0.000000000001
 89       0.000000000000
 90       0.000000000000
 91       0.000000000002
 92       0.000000000000
 93      -0.000000000001
 94      -0.000000000001
 95      -0.000000000000
 96      -0.000000000001
 97      -0.000000000000
 98       0.000000000001
 99       0.000000000001
100       0.000000000000
101       0.000000000001
102       0.000000000000
103      -0.000000000000
104      -0.000000000001
105      -0.000000000000
106      -0.000000000000
107       0.000000000000
108       0.000000000000
109       0.000000000000
110       0.000000000000
111      -0.000000252234
112       0.000000104943
113      -0.000000061670
114      -0.000000841122
115       0.000000197213
116      -0.000000861431
117      -0.000000211780
118       0.000000128390
119      -0.000000260930
120       0.000000224279
121       0.000000586766
122      -0.000000059498
123       0.000000897300
124       0.000000132602
125      -0.000000067080
126       0.000000189204
127      -0.000000166325
128      -0.000000346932
129       0.000000020634
130      -0.000000585678
131      -0.000000075615
132       0.000000039037
133      -0.000000071785
134       0.000000061152
135       0.000000172735
136      -0.000000019621
137       0.000000256186
138       0.000000039411
139      -0.000000018434
140       0.000000039975
141      -0.000000034504
142      -0.000000086260
143       0.000000008078
144      -0.000000134428
145      -0.000000019339
146       0.000000008550
147      -0.000000018225
148       0.000000015716
149       0.000000039755
150      -0.000000003806
151       0.000000061648
152       0.000000008933
153      -0.000000002967
154       0.000000006332
155      -0.000000005461
156      -0.000000013801
157       0.000000001319
158      -0.000000021409
159      -0.000000003100
 Sym=     1a
 Ene= -6.76356030747139E+02
 Spin= Alpha
 Occup= 1.000000
  1      -0.000000000000
  2      -0.000000000000
  3      -0.000000000000
  4      -0.000000000000
  5      -0.000000000001
  6      -0.000000000000
  7      -0.000000000001
  8       0.000000000003
  9       0.000000000002
 10       0.000000000003
 11      -0.000000000007
 12       0.000000000009
 13      -0.000000000011
 14       0.000000000014
 15      -0.000000000014
 16       0.000000000008
 17      -0.000000000001
 18      -0.000000000001
 19      -0.000000000000
 20       0.000000000001
 21      -0.000000000000
 22      -0.091661122147
 23      -0.031612513218
 24      -0.149444471317
 25      -0.156033730453
 26      -0.053813637160
 27      -0.254397696755
 28      -0.235132811418
 29      -0.081093694931
 30      -0.383360991646
 31      -0.123671089454
 32      -0.042652259876
 33      -0.201633584279
 34      -0.004148216943
 35      -0.001430656806
 36      -0.006763261152
 37      -0.002252899563
 38      -0.000776990090
 39      -0.003673131770
 40       0.001558348350
 41       0.000537450230
 42       0.002540734126
 43      -0.000956689473
 44      -0.000329947454
 45      -0.001559788344
 46       0.000574564124
 47       0.000198158316
 48       0.000936770461
 49      -0.000340370646
 50      -0.000117388577
 51      -0.000554940959
 52       0.000190301742
 53       0.000065632134
 54       0.000310268327
 55      -0.000091991999
 56      -0.000031726621
 57      -0.000149983933
 58       0.000028795707
 59       0.000009931195
 60       0.000046948575
 61      -0.000000000001
 62      -0.000000000000
 63       0.000000000002
 64      -0.000000000000
 65       0.000000000003
 66      -0.000000000003
 67      -0.000000000004
 68      -0.000000000001
 69      -0.000000000000
 70      -0.000000000002
 71       0.000000000008
 72       0.000000000003
 73      -0.000000000000
 74       0.000000000000
 75       0.000000000002
 76      -0.000000000010
 77      -0.000000000002
 78       0.000000000003
 79      -0.000000000001
 80      -0.000000000001
 81       0.000000000006
 82       0.000000000001
 83      -0.000000000004
 84       0.000000000001
 85       0.000000000001
 86      -0.000000000003
 87      -0.000000000001
 88       0.000000000002
 89      -0.000000000000
 90      -0.000000000001
 91       0.000000000002
 92       0.000000000001
 93      -0.000000000001
 94       0.000000000000
 95       0.000000000000
 96      -0.000000000000
 97      -0.000000000000
 98      -0.000000000000
 99      -0.000000000001
100      -0.000000000001
101      -0.000000000000
102       0.000000000000
103       0.000000000000
104       0.000000000001
105       0.000000000001
106       0.000000000000
107      -0.000000000000
108      -0.000000000000
109      -0.000000000000
110      -0.000000000000
111       0.000000716882
112      -0.000000574508
113      -0.000000485417
114       0.000000283248
115       0.000000699972
116      -0.000000155297
117      -0.000000901976
118      -0.000000368643
119       0.000000448756
120       0.000000483956
121      -0.000000118860
122      -0.000000333732
123       0.000000040501
124       0.000000523268
125       0.000000193483
126      -0.000000274256
127      -0.000000313178
128       0.000000055631
129       0.000000168558
130      -0.000000011329
131      -0.000000289657
132      -0.000000112018
133       0.000000130821
134       0.000000138596
135      -0.000000037068
136      -0.000000102337
137       0.000000013710
138       0.000000156843
139       0.000000053058
140      -0.000000066368
141      -0.000000072404
142       0.000000016791
143       0.000000047714
144      -0.000000005347
145      -0.000000075999
146      -0.000000024590
147       0.000000030542
148       0.000000033216
149      -0.000000007821
150      -0.000000022152
151       0.000000002541
152       0.000000035137
153       0.000000008533
154      -0.000000010604
155      -0.000000011535
156       0.000000002713
157       0.000000007686
158      -0.000000000880
159      -0.000000012195
 Sym=     1a
 Ene= -6.76353659485455E+02
 Spin= Alpha
 Occup= 1.000000
  1       0.000000000000
  2       0.000000000000
  3       0.000000000001
  4       0.000000000001
  5       0.000000000002
  6       0.000000000001
  7       0.000000000002
  8      -0.000000000006
  9      -0.000000000006
 10      -0.000000000003
 11       0.000000000007
 12      -0.000000000006
 13      -0.000000000006
 14       0.000000000032
 15      -0.000000000041
 16       0.000000000018
 17       0.000000000018
 18      -0.000000000034
 19       0.000000000027
 20      -0.000000000011
 21       0.000000000003
 22      -0.123031262130
 23      -0.088018750019
 24       0.094079609135
 25      -0.209434884078
 26      -0.149833435618
 27       0.160150775405
 28      -0.315604645366
 29      -0.225789170276
 30       0.241336723892
 31      -0.165993538457
 32      -0.118754722835
 33       0.126932024017
 34      -0.005567517076
 35      -0.003983098423
 36       0.004257371213
 37      -0.003024596918
 38      -0.002163852035
 39       0.002312850878
 40       0.002091798528
 41       0.001496510658
 42      -0.001599557835
 43      -0.001284084378
 44      -0.000918657014
 45       0.000981914369
 46       0.000771257868
 47       0.000551771692
 48      -0.000589765903
 49      -0.000456889859
 50      -0.000326867265
 51       0.000349374821
 52       0.000255447031
 53       0.000182751404
 54      -0.000195335387
 55      -0.000123483701
 56      -0.000088342462
 57       0.000094425590
 58       0.000038653423
 59       0.000027653354
 60      -0.000029557522
 61       0.000000000000
 62      -0.000000000001
 63      -0.000000000001
 64      -0.000000000000
 65       0.000000000000
 66      -0.000000000001
 67      -0.000000000000
 68      -0.000000000000
 69      -0.000000000000
 70      -0.000000000001
 71       0.000000000007
 72       0.000000000000
 73      -0.000000000001
 74      -0.000000000000
 75       0.000000000001
 76      -0.000000000010
 77      -0.000000000000
 78       0.000000000004
 79      -0.000000000001
 80      -0.000000000000
 81       0.000000000007
 82      -0.000000000000
 83      -0.000000000002
 84       0.000000000001
 85      -0.000000000000
 86      -0.000000000004
 87       0.000000000000
 88       0.000000000001
 89       0.000000000000
 90       0.000000000000
 91       0.000000000003
 92      -0.000000000000
 93      -0.000000000001
 94      -0.000000000001
 95      -0.000000000000
 96      -0.000000000002
 97       0.000000000000
 98       0.000000000001
 99       0.000000000002
100       0.000000000001
101       0.000000000001
102      -0.000000000000
103      -0.000000000001
104      -0.000000000001
105      -0.000000000001
106      -0.000000000000
107       0.000000000000
108       0.000000000000
109       0.000000000000
110       0.000000000000
111       0.000000347124
112       0.000000285334
113       0.000000333862
114      -0.000000208957
115      -0.000001383620
116       0.000000201682
117      -0.000001250048
118      -0.000000281264
119      -0.000000190778
120      -0.000000225017
121       0.000000235149
122       0.000000863195
123      -0.000000174074
124       0.000000790174
125       0.000000173621
126       0.000000111291
127       0.000000131580
128      -0.000000155711
129      -0.000000491420
130       0.000000109130
131      -0.000000451967
132      -0.000000081717
133      -0.000000056339
134      -0.000000066415
135       0.000000066838
136       0.000000256673
137      -0.000000050346
138       0.000000234681
139       0.000000041668
140       0.000000027962
141       0.000000032991
142      -0.000000035355
143      -0.000000125948
144       0.000000025870
145      -0.000000115415
146      -0.000000019168
147      -0.000000012899
148      -0.000000015215
149       0.000000016199
150       0.000000058161
151      -0.000000011887
152       0.000000053279
153       0.000000006655
154       0.000000004478
155       0.000000005282
156      -0.000000005626
157      -0.000000020188
158       0.000000004128
159      -0.000000018494
 Sym=     1a
 Ene= -2.07746122117780E+02
 Spin= Alpha
 Occup= 1.000000
  1      -0.017570473828
  2      -0.014771374101
  3      -0.024513774797
  4      -0.043856981840
  5      -0.070031618170
  6      -0.094377647804
  7      -0.026319724857
  8       0.294937066190
  9       0.691852508381
 10      -0.199349357008
 11      -0.987506912384
 12      -0.139718254025
 13      -0.019460341164
 14       0.014909519813
 15      -0.010538245414
 16       0.007228403285
 17      -0.004756205292
 18       0.002967309659
 19      -0.001684177044
 20       0.000772914410
 21      -0.000208408399
 22       0.000000000000
 23      -0.000000000003
 24       0.000000000003
 25      -0.000000000001
 26      -0.000000000005
 27       0.000000000006
 28       0.000000000008
 29      -0.000000000009
 30       0.000000000005
 31      -0.000000000012
 32       0.000000000003
 33       0.000000000003
 34       0.000000000000
 35       0.000000000021
 36      -0.000000000023
 37      -0.000000000001
 38       0.000000000011
 39      -0.000000000006
 40       0.000000000000
 41      -0.000000000008
 42      -0.000000000002
 43       0.000000000001
 44       0.000000000034
 45       0.000000000010
 46      -0.000000000002
 47      -0.000000000040
 48      -0.000000000011
 49       0.000000000002
 50       0.000000000029
 51       0.000000000008
 52      -0.000000000001
 53      -0.000000000016
 54      -0.000000000004
 55       0.000000000000
 56       0.000000000008
 57       0.000000000002
 58      -0.000000000000
 59      -0.000000000002
 60      -0.000000000001
 61       0.000003519052
 62      -0.000011791935
 63      -0.000011502039
 64       0.000008597005
 65       0.000020476074
 66       0.000007807842
 67      -0.000026086735
 68      -0.000025454340
 69       0.000019042343
 70       0.000045335733
 71       0.000003101832
 72      -0.000010300994
 73      -0.000010038565
 74       0.000007548673
 75       0.000017914601
 76      -0.000000118167
 77       0.000000371774
 78       0.000000367753
 79      -0.000000277570
 80      -0.000000659278
 81       0.000000270134
 82      -0.000000885848
 83      -0.000000870565
 84       0.000000650212
 85       0.000001551727
 86      -0.000000077772
 87       0.000000250308
 88       0.000000244729
 89      -0.000000186024
 90      -0.000000439117
 91       0.000000061691
 92      -0.000000201937
 93      -0.000000198385
 94       0.000000148365
 95       0.000000353762
 96      -0.000000029362
 97       0.000000095329
 98       0.000000093566
 99      -0.000000070369
100      -0.000000167231
101       0.000000013977
102      -0.000000045368
103      -0.000000044577
104       0.000000033473
105       0.000000079636
106      -0.000000004701
107       0.000000015257
108       0.000000014993
109      -0.000000011257
110      -0.000000026784
111       0.000000000052
112       0.000000000019
113       0.000000000006
114      -0.000000000001
115       0.000000000039
116      -0.000000000075
117      -0.000000000000
118      -0.000000000037
119      -0.000000000014
120      -0.000000000003
121       0.000000000001
122      -0.000000000028
123       0.000000000053
124       0.000000000001
125       0.000000000023
126       0.000000000009
127       0.000000000002
128      -0.000000000000
129       0.000000000017
130      -0.000000000032
131       0.000000000001
132      -0.000000000013
133      -0.000000000006
134      -0.000000000000
135      -0.000000000000
136      -0.000000000008
137       0.000000000018
138       0.000000000001
139       0.000000000010
140       0.000000000006
141      -0.000000000002
142       0.000000000002
143      -0.000000000001
144      -0.000000000010
145      -0.000000000009
146      -0.000000000005
147      -0.000000000007
148       0.000000000003
149      -0.000000000001
150       0.000000000004
151       0.000000000003
152       0.000000000043
153      -0.000000000002
154       0.000000000004
155      -0.000000000005
156       0.000000000005
157      -0.000000000006
158       0.000000000004
159      -0.000000000020
 Sym=     1a
 Ene= -1.71132807738737E+02
 Spin= Alpha
 Occup= 1.000000
  1       0.000000000000
  2       0.000000000000
  3       0.000000000000
  4       0.000000000001
  5       0.000000000001
  6       0.000000000002
  7      -0.000000000001
  8       0.000000000001
  9      -0.000000000019
 10       0.000000000033
 11      -0.000000000081
 12       0.000000000156
 13      -0.000000000102
 14       0.000000000028
 15       0.000000000011
 16      -0.000000000000
 17      -0.000000000026
 18       0.000000000012
 19       0.000000000010
 20      -0.000000000014
 21       0.000000000005
 22       0.050599202325
 23      -0.084724013462
 24      -0.013133382591
 25       0.092525134736
 26      -0.154925382549
 27      -0.024015556227
 28       0.141904617620
 29      -0.237607079898
 30      -0.036832352186
 31      -0.061407482830
 32       0.102821551349
 33       0.015938747833
 34      -0.377112366076
 35       0.631442202152
 36       0.097882206114
 37      -0.129859398082
 38       0.217438459867
 39       0.033705904790
 40       0.003871586470
 41      -0.006482640270
 42      -0.001004897140
 43      -0.003090162624
 44       0.005174204114
 45       0.000802076716
 46       0.001765034104
 47      -0.002955396999
 48      -0.000458127589
 49      -0.000992433664
 50       0.001661746634
 51       0.000257592509
 52       0.000547647859
 53      -0.000916988848
 54      -0.000142146068
 55      -0.000263737132
 56       0.000441605083
 57       0.000068454882
 58       0.000082451642
 59      -0.000138058163
 60      -0.000021400922
 61       0.000000000014
 62       0.000000000003
 63       0.000000000011
 64      -0.000000000009