[Molden Format]
[Title]
 Molden file created by orca_2mkl for BaseName=/data01/Nikolayandreadi/heavy/CC2/Pu_Cl_6

[Atoms] AU
Pu   1  94         -0.0000018897        -0.0000151178        -0.0000226767 
Cl   2  17          0.0034752064         0.0041668461         4.5903942231 
Cl   3  17         -0.0035545749        -0.0041403900        -4.5905586293 
Cl   4  17          0.0068540367        -4.5905151656         0.0042424352 
Cl   5  17         -0.0067954552         4.5904868197        -0.0042027509 
Cl   6  17         -4.5904150101        -0.0067841168         0.0035489057 
Cl   7  17          4.5904376868         0.0068011244        -0.0034015070 
[GTO]
  1 0
s   9 1.0 
 61522220.6225290000     17063.6754636881
 27964645.7375129983     -6251.6280422765
 12711202.6079610009      9671.6986576994
  5777819.3672550004       289.2210734849
  2626281.5305699999      4464.1627617163
  1193764.3320770001      2006.5541689788
   542620.1509440000      2788.3025657130
   246645.5231560000      2062.8458110195
   112111.6014350000      2113.6106705618
s   1 1.0 
    50959.8188340000      2417.3024864446
s   1 1.0 
    23163.5540150000      1338.1783156871
s   1 1.0 
    10528.8881890000       740.7931835960
s   1 1.0 
     4785.8582680000       410.0907438407
s   1 1.0 
     2175.3901220000       227.0193920667
s   1 1.0 
      988.8136920000       125.6741468865
s   1 1.0 
      449.4607690000        69.5711104117
s   1 1.0 
      204.3003500000        38.5134057612
s   1 1.0 
       92.8637950000        21.3203786259
s   1 1.0 
       42.2108160000        11.8026058245
s   1 1.0 
       19.1867350000         6.5337257345
s   1 1.0 
        8.7212430000         3.6169614730
s   1 1.0 
        3.9642010000         2.0022893726
s   1 1.0 
        1.8019100000         1.1084341915
s   1 1.0 
        0.8190500000         0.6136106705
s   1 1.0 
        0.3722950000         0.3396843160
s   1 1.0 
        0.1692250000         0.1880435685
s   1 1.0 
        0.0769210000         0.1040983350
s   1 1.0 
        0.0349640000         0.0576269887
s   1 1.0 
        0.0158930000         0.0319017498
p   8 1.0 
   879013.3813660000    139189.6694195126
   366255.5755690000     11873.5310695809
   152606.4898210000     40255.8773916045
    63586.0374250000     19887.9699123185
    26494.1822610000     19138.0697118639
    11039.2426090000     15284.2547358037
     4599.6844200000     14199.0747202623
     1916.5351750000     12759.1191870144
p   1 1.0 
      798.5563230000      6050.9286073116
p   1 1.0 
      332.7318010000      2025.6199998139
p   1 1.0 
      138.6382510000       678.1002843303
p   1 1.0 
       57.7659380000       227.0021001283
p   1 1.0 
       24.0691410000        75.9916416591
p   1 1.0 
       10.0288090000        25.4391026723
p   1 1.0 
        4.1786700000         8.5160397883
p   1 1.0 
        1.7411130000         2.8508461829
p   1 1.0 
        0.7254640000         0.9543549283
p   1 1.0 
        0.3022760000         0.3194807322
p   1 1.0 
        0.1259490000         0.1069506658
p   1 1.0 
        0.0524790000         0.0358032150
d   7 1.0 
    43223.8765000000     60764.0080375267
    17289.5506000000     29755.0800020834
     6915.8202400000     32871.2311092175
     2766.3280960000     30065.6700485816
     1106.5312380000     31905.5201083940
      442.6124950000     28787.6778141197
      177.0449980000     19499.0030796932
d   1 1.0 
       70.8179990000      4928.5761768021
d   1 1.0 
       28.3272000000       991.5770557751
d   1 1.0 
       11.3308800000       199.4947420861
d   1 1.0 
        4.5323520000        40.1362172392
d   1 1.0 
        1.8129410000         8.0749809665
d   1 1.0 
        0.7251760000         1.6245985936
d   1 1.0 
        0.2900710000         0.3268531162
d   1 1.0 
        0.1160280000         0.0657589689
d   1 1.0 
        0.0464110000         0.0132299043
f   6 1.0 
     4758.8680260000     68069.5976130275
     1830.3338560000     59148.9500505355
      703.9745600000     64844.9511990799
      270.7594460000     63667.3327460647
      104.1382490000     46445.9881466115
       40.0531730000     19036.1414891793
f   1 1.0 
       15.4050660000      2680.6684110836
f   1 1.0 
        5.9250260000       312.2864675901
f   1 1.0 
        2.2788560000        36.3800311270
f   1 1.0 
        0.8764830000         4.2381170555
f   1 1.0 
        0.3371090000         0.4937230016
f   1 1.0 
        0.1296570000         0.0575163091

  2 0
s   7 1.0 
    69507.9909450000         4.1142286333
    10426.1568800000         4.2286655222
     2373.2334061000         5.8493829067
      671.5642007100         8.3358677251
      218.4199979000        10.0089622684
       77.5722497100         8.2783277553
       28.8888152800         2.9822029766
s   1 1.0 
      127.1052718500        26.9794296956
s   1 1.0 
       39.3395829600        11.1952141621
s   1 1.0 
        7.6740680000         3.2860890225
s   1 1.0 
        3.8745627600        -1.9682357562
s   1 1.0 
        1.8385832600         1.1253110111
s   1 1.0 
        0.5022905800        -0.4252324193
s   1 1.0 
        0.1796272300         0.1966478587
p   6 1.0 
      666.5042328400        13.1758105786
      157.6424169000        16.0544655669
       50.2625209800        17.4320614645
       18.5360781100        14.3789566857
        7.2940532800         7.6571902731
        2.9433249000         1.9874071930
p   1 1.0 
        1.0404970800         1.4979287975
p   1 1.0 
        0.3845641500        -0.4316692201
p   1 1.0 
        0.1306964300         0.1120133392
d   2 1.0 
        4.6100000000         7.5524217504
        1.0110000000         2.6539585854
d   1 1.0 
        0.3390000000         0.4293579962
f   1 1.0 
        0.7060000000         2.6050175686

  3 0
s   7 1.0 
    69507.9909450000         4.1142286333
    10426.1568800000         4.2286655222
     2373.2334061000         5.8493829067
      671.5642007100         8.3358677251
      218.4199979000        10.0089622684
       77.5722497100         8.2783277553
       28.8888152800         2.9822029766
s   1 1.0 
      127.1052718500        26.9794296956
s   1 1.0 
       39.3395829600        11.1952141621
s   1 1.0 
        7.6740680000         3.2860890225
s   1 1.0 
        3.8745627600        -1.9682357562
s   1 1.0 
        1.8385832600         1.1253110111
s   1 1.0 
        0.5022905800        -0.4252324193
s   1 1.0 
        0.1796272300         0.1966478587
p   6 1.0 
      666.5042328400        13.1758105786
      157.6424169000        16.0544655669
       50.2625209800        17.4320614645
       18.5360781100        14.3789566857
        7.2940532800         7.6571902731
        2.9433249000         1.9874071930
p   1 1.0 
        1.0404970800         1.4979287975
p   1 1.0 
        0.3845641500        -0.4316692201
p   1 1.0 
        0.1306964300         0.1120133392
d   2 1.0 
        4.6100000000         7.5524217504
        1.0110000000         2.6539585854
d   1 1.0 
        0.3390000000         0.4293579962
f   1 1.0 
        0.7060000000         2.6050175686

  4 0
s   7 1.0 
    69507.9909450000         4.1142286333
    10426.1568800000         4.2286655222
     2373.2334061000         5.8493829067
      671.5642007100         8.3358677251
      218.4199979000        10.0089622684
       77.5722497100         8.2783277553
       28.8888152800         2.9822029766
s   1 1.0 
      127.1052718500        26.9794296956
s   1 1.0 
       39.3395829600        11.1952141621
s   1 1.0 
        7.6740680000         3.2860890225
s   1 1.0 
        3.8745627600        -1.9682357562
s   1 1.0 
        1.8385832600         1.1253110111
s   1 1.0 
        0.5022905800        -0.4252324193
s   1 1.0 
        0.1796272300         0.1966478587
p   6 1.0 
      666.5042328400        13.1758105786
      157.6424169000        16.0544655669
       50.2625209800        17.4320614645
       18.5360781100        14.3789566857
        7.2940532800         7.6571902731
        2.9433249000         1.9874071930
p   1 1.0 
        1.0404970800         1.4979287975
p   1 1.0 
        0.3845641500        -0.4316692201
p   1 1.0 
        0.1306964300         0.1120133392
d   2 1.0 
        4.6100000000         7.5524217504
        1.0110000000         2.6539585854
d   1 1.0 
        0.3390000000         0.4293579962
f   1 1.0 
        0.7060000000         2.6050175686

  5 0
s   7 1.0 
    69507.9909450000         4.1142286333
    10426.1568800000         4.2286655222
     2373.2334061000         5.8493829067
      671.5642007100         8.3358677251
      218.4199979000        10.0089622684
       77.5722497100         8.2783277553
       28.8888152800         2.9822029766
s   1 1.0 
      127.1052718500        26.9794296956
s   1 1.0 
       39.3395829600        11.1952141621
s   1 1.0 
        7.6740680000         3.2860890225
s   1 1.0 
        3.8745627600        -1.9682357562
s   1 1.0 
        1.8385832600         1.1253110111
s   1 1.0 
        0.5022905800        -0.4252324193
s   1 1.0 
        0.1796272300         0.1966478587
p   6 1.0 
      666.5042328400        13.1758105786
      157.6424169000        16.0544655669
       50.2625209800        17.4320614645
       18.5360781100        14.3789566857
        7.2940532800         7.6571902731
        2.9433249000         1.9874071930
p   1 1.0 
        1.0404970800         1.4979287975
p   1 1.0 
        0.3845641500        -0.4316692201
p   1 1.0 
        0.1306964300         0.1120133392
d   2 1.0 
        4.6100000000         7.5524217504
        1.0110000000         2.6539585854
d   1 1.0 
        0.3390000000         0.4293579962
f   1 1.0 
        0.7060000000         2.6050175686

  6 0
s   7 1.0 
    69507.9909450000         4.1142286333
    10426.1568800000         4.2286655222
     2373.2334061000         5.8493829067
      671.5642007100         8.3358677251
      218.4199979000        10.0089622684
       77.5722497100         8.2783277553
       28.8888152800         2.9822029766
s   1 1.0 
      127.1052718500        26.9794296956
s   1 1.0 
       39.3395829600        11.1952141621
s   1 1.0 
        7.6740680000         3.2860890225
s   1 1.0 
        3.8745627600        -1.9682357562
s   1 1.0 
        1.8385832600         1.1253110111
s   1 1.0 
        0.5022905800        -0.4252324193
s   1 1.0 
        0.1796272300         0.1966478587
p   6 1.0 
      666.5042328400        13.1758105786
      157.6424169000        16.0544655669
       50.2625209800        17.4320614645
       18.5360781100        14.3789566857
        7.2940532800         7.6571902731
        2.9433249000         1.9874071930
p   1 1.0 
        1.0404970800         1.4979287975
p   1 1.0 
        0.3845641500        -0.4316692201
p   1 1.0 
        0.1306964300         0.1120133392
d   2 1.0 
        4.6100000000         7.5524217504
        1.0110000000         2.6539585854
d   1 1.0 
        0.3390000000         0.4293579962
f   1 1.0 
        0.7060000000         2.6050175686

  7 0
s   7 1.0 
    69507.9909450000         4.1142286333
    10426.1568800000         4.2286655222
     2373.2334061000         5.8493829067
      671.5642007100         8.3358677251
      218.4199979000        10.0089622684
       77.5722497100         8.2783277553
       28.8888152800         2.9822029766
s   1 1.0 
      127.1052718500        26.9794296956
s   1 1.0 
       39.3395829600        11.1952141621
s   1 1.0 
        7.6740680000         3.2860890225
s   1 1.0 
        3.8745627600        -1.9682357562
s   1 1.0 
        1.8385832600         1.1253110111
s   1 1.0 
        0.5022905800        -0.4252324193
s   1 1.0 
        0.1796272300         0.1966478587
p   6 1.0 
      666.5042328400        13.1758105786
      157.6424169000        16.0544655669
       50.2625209800        17.4320614645
       18.5360781100        14.3789566857
        7.2940532800         7.6571902731
        2.9433249000         1.9874071930
p   1 1.0 
        1.0404970800         1.4979287975
p   1 1.0 
        0.3845641500        -0.4316692201
p   1 1.0 
        0.1306964300         0.1120133392
d   2 1.0 
        4.6100000000         7.5524217504
        1.0110000000         2.6539585854
d   1 1.0 
        0.3390000000         0.4293579962
f   1 1.0 
        0.7060000000         2.6050175686

[5D]
[7F]
[9G]
[MO]
 Sym=     1a
 Ene= -4.48894509279793E+03
 Spin= Alpha
 Occup= 2.000000
  1       0.089707845116
  2       0.067509818961
  3       0.114799905147
  4       0.180028340641
  5       0.264901856275
  6       0.299423806478
  7       0.188405053847
  8       0.030966887674
  9       0.000918085687
 10      -0.000657333555
 11       0.000477705136
 12      -0.000351174259
 13       0.000249378765
 14      -0.000168973706
 15       0.000113617085
 16      -0.000077600878
 17       0.000054144375
 18      -0.000038017306
 19       0.000024428533
 20      -0.000008936455
 21       0.000001991497
 22       0.000000000001
 23      -0.000000000002
 24      -0.000000000010
 25      -0.000000000001
 26       0.000000000001
 27       0.000000000004
 28      -0.000000000001
 29      -0.000000000001
 30       0.000000000003
 31       0.000000000001
 32       0.000000000001
 33      -0.000000000002
 34      -0.000000000001
 35      -0.000000000000
 36       0.000000000003
 37       0.000000000002
 38       0.000000000000
 39      -0.000000000006
 40      -0.000000000003
 41      -0.000000000001
 42       0.000000000010
 43       0.000000000004
 44       0.000000000001
 45      -0.000000000018
 46      -0.000000000007
 47      -0.000000000001
 48       0.000000000030
 49       0.000000000010
 50       0.000000000001
 51      -0.000000000045
 52      -0.000000000005
 53       0.000000000002
 54       0.000000000028
 55      -0.000000000022
 56      -0.000000000010
 57       0.000000000085
 58       0.000000000004
 59       0.000000000010
 60       0.000000000002
 61       0.000000000000
 62      -0.000000000000
 63       0.000000000000
 64      -0.000000000002
 65       0.000000000001
 66      -0.000000000001
 67       0.000000000001
 68      -0.000000000000
 69       0.000000000005
 70      -0.000000000001
 71       0.000000000001
 72       0.000000000001
 73      -0.000000000002
 74      -0.000000000004
 75      -0.000000000001
 76      -0.000000000001
 77      -0.000000000001
 78       0.000000000003
 79       0.000000000007
 80       0.000000000001
 81       0.000000000002
 82       0.000000000003
 83      -0.000000000005
 84      -0.000000000011
 85      -0.000000000002
 86      -0.000000000003
 87      -0.000000000006
 88       0.000000000010
 89       0.000000000020
 90       0.000000000004
 91       0.000000000006
 92       0.000000000010
 93      -0.000000000017
 94      -0.000000000040
 95      -0.000000000007
 96      -0.000000000009
 97      -0.000000000016
 98       0.000000000026
 99       0.000000000068
100       0.000000000010
101      -0.000000000000
102       0.000000000019
103      -0.000000000031
104      -0.000000000014
105      -0.000000000012
106       0.000000000000
107       0.000000000000
108      -0.000000000000
109       0.000000000002
110       0.000000000000
111      -0.000000000001
112      -0.000000000000
113       0.000000000000
114       0.000000000000
115      -0.000000000000
116       0.000000000000
117      -0.000000000000
118       0.000000000003
119       0.000000000001
120      -0.000000000000
121      -0.000000000001
122       0.000000000000
123      -0.000000000000
124       0.000000000001
125      -0.000000000008
126      -0.000000000003
127       0.000000000001
128       0.000000000002
129      -0.000000000000
130       0.000000000000
131      -0.000000000001
132       0.000000000017
133       0.000000000005
134      -0.000000000002
135      -0.000000000004
136       0.000000000000
137      -0.000000000001
138       0.000000000002
139      -0.000000000038
140      -0.000000000011
141       0.000000000004
142       0.000000000007
143      -0.000000000000
144       0.000000000001
145      -0.000000000004
146       0.000000000076
147       0.000000000020
148      -0.000000000008
149      -0.000000000013
150       0.000000000000
151      -0.000000000001
152       0.000000000008
153      -0.000000000059
154      -0.000000000019
155       0.000000000013
156       0.000000000016
157      -0.000000000000
158       0.000000000009
159      -0.000000000014
160       0.000000025420
161      -0.000000027270
162       0.000000022564
163      -0.000000193626
164      -0.000000448230
165      -0.000000499429
166      -0.000000501241
167      -0.000000828522
168      -0.000000000001
169      -0.000000000001
170      -0.000000000895
171       0.000000000057
172       0.000000000068
173       0.000000075295
174       0.000000000297
175       0.000000000357
176       0.000000393802
177       0.000000000407
178       0.000000000485
179       0.000000534685
180       0.000000036532
181       0.000000000048
182       0.000000000057
183      -0.000000000001
184      -0.000000000000
185       0.000000213050
186       0.000000000279
187       0.000000000337
188       0.000000000001
189       0.000000000001
190       0.000000028553
191       0.000000000052
192       0.000000000063
193      -0.000000000000
194       0.000000000000
195      -0.000000000000
196      -0.000000000000
197       0.000000025421
198      -0.000000027271
199       0.000000022565
200      -0.000000193629
201      -0.000000448228
202      -0.000000499404
203      -0.000000501125
204      -0.000000828397
205       0.000000000001
206       0.000000000001
207       0.000000000906
208      -0.000000000059
209      -0.000000000067
210      -0.000000075353
211      -0.000000000309
212      -0.000000000351
213      -0.000000393840
214      -0.000000000410
215      -0.000000000485
216      -0.000000534652
217       0.000000036511
218       0.000000000049
219       0.000000000056
220      -0.000000000001
221      -0.000000000000
222       0.000000213128
223       0.000000000286
224       0.000000000331
225       0.000000000003
226       0.000000000001
227      -0.000000028477
228      -0.000000000056
229      -0.000000000061
230       0.000000000000
231      -0.000000000000
232       0.000000000000
233       0.000000000001
234       0.000000025421
235      -0.000000027271
236       0.000000022565
237      -0.000000193628
238      -0.000000448229
239      -0.000000499412
240      -0.000000501161
241      -0.000000828442
242      -0.000000000001
243       0.000000000903
244      -0.000000000001
245       0.000000000113
246      -0.000000075336
247       0.000000000072
248       0.000000000590
249      -0.000000393826
250       0.000000000371
251       0.000000000796
252      -0.000000534668
253       0.000000000490
254      -0.000000018258
255       0.000000000000
256      -0.000000000060
257      -0.000000031625
258      -0.000000000095
259      -0.000000106553
260      -0.000000000000
261      -0.000000000344
262      -0.000000184552
263      -0.000000000552
264      -0.000000000040
265      -0.000000000026
266       0.000000017451
267      -0.000000000054
268      -0.000000000000
269       0.000000000102
270      -0.000000022529
271       0.000000025421
272      -0.000000027271
273       0.000000022565
274      -0.000000193627
275      -0.000000448227
276      -0.000000499409
277      -0.000000501159
278      -0.000000828425
279       0.000000000001
280      -0.000000000903
281       0.000000000001
282      -0.000000000111
283       0.000000075336
284      -0.000000000068
285      -0.000000000583
286       0.000000393826
287      -0.000000000357
288      -0.000000000794
289       0.000000534658
290      -0.000000000490
291      -0.000000018258
292       0.000000000000
293      -0.000000000058
294      -0.000000031625
295      -0.000000000094
296      -0.000000106553
297      -0.000000000000
298      -0.000000000335
299      -0.000000184553
300      -0.000000000546
301       0.000000000039
302       0.000000000026
303      -0.000000017451
304       0.000000000049
305       0.000000000000
306      -0.000000000100
307       0.000000022530
308       0.000000025420
309      -0.000000027270
310       0.000000022564
311      -0.000000193626
312      -0.000000448232
313      -0.000000499430
314      -0.000000501236
315      -0.000000828525
316       0.000000000896
317       0.000000000001
318      -0.000000000001
319      -0.000000075298
320      -0.000000000111
321       0.000000000060
322      -0.000000393808
323      -0.000000000579
324       0.000000000311
325      -0.000000534685
326      -0.000000000792
327       0.000000000408
328      -0.000000018266
329      -0.000000000049
330      -0.000000000000
331       0.000000031637
332       0.000000000093
333      -0.000000106528
334      -0.000000000289
335       0.000000000001
336       0.000000184510
337       0.000000000544
338      -0.000000000034
339       0.000000017483
340       0.000000000025
341       0.000000000046
342       0.000000000000
343       0.000000022571
344       0.000000000099
345       0.000000025420
346      -0.000000027271
347       0.000000022564
348      -0.000000193627
349      -0.000000448230
350      -0.000000499423
351      -0.000000501210
352      -0.000000828490
353      -0.000000000898
354      -0.000000000001
355       0.000000000000
356       0.000000075311
357       0.000000000112
358      -0.000000000053
359       0.000000393816
360       0.000000000584
361      -0.000000000282
362       0.000000534674
363       0.000000000791
364      -0.000000000403
365      -0.000000018264
366      -0.000000000046
367      -0.000000000000
368       0.000000031633
369       0.000000000094
370      -0.000000106534
371      -0.000000000270
372       0.000000000001
373       0.000000184526
374       0.000000000549
375       0.000000000030
376      -0.000000017474
377      -0.000000000026
378      -0.000000000037
379      -0.000000000000
380      -0.000000022558
381      -0.000000000101
 Sym=     1a
 Ene= -8.54658079262559E+02
 Spin= Alpha
 Occup= 2.000000
  1       0.038294122242
  2       0.031156925122
  3       0.051668508780
  4       0.088895585631
  5       0.140006333326
  6       0.175204166653
  7       0.061930060512
  8      -0.380721563537
  9      -0.603125468653
 10      -0.160437273212
 11       0.001809768066
 12      -0.001355652886
 13       0.000662247794
 14      -0.000303821571
 15       0.000150648901
 16      -0.000092510958
 17       0.000061827752
 18      -0.000042038906
 19       0.000026867082
 20      -0.000009782459
 21       0.000002171706
 22       0.000000000031
 23      -0.000000000009
 24      -0.000000000153
 25       0.000000000048
 26      -0.000000000014
 27      -0.000000000229
 28       0.000000000075
 29      -0.000000000017
 30      -0.000000000376
 31       0.000000000067
 32      -0.000000000009
 33      -0.000000000311
 34       0.000000000012
 35      -0.000000000001
 36      -0.000000000065
 37       0.000000000002
 38       0.000000000001
 39      -0.000000000007
 40      -0.000000000003
 41      -0.000000000004
 42       0.000000000009
 43       0.000000000005
 44       0.000000000005
 45      -0.000000000022
 46      -0.000000000008
 47      -0.000000000005
 48       0.000000000045
 49       0.000000000010
 50       0.000000000006
 51      -0.000000000064
 52       0.000000000001
 53      -0.000000000012
 54       0.000000000046
 55      -0.000000000042
 56       0.000000000022
 57       0.000000000083
 58       0.000000000003
 59       0.000000000015
 60       0.000000000002
 61      -0.000000000045
 62       0.000000000077
 63      -0.000000000057
 64       0.000000000152
 65      -0.000000000072
 66      -0.000000000044
 67       0.000000000054
 68      -0.000000000052
 69       0.000000000176
 70      -0.000000000049
 71       0.000000000013
 72       0.000000000004
 73      -0.000000000005
 74      -0.000000000052
 75       0.000000000002
 76      -0.000000000009
 77       0.000000000002
 78      -0.000000000015
 79       0.000000000043
 80      -0.000000000010
 81       0.000000000005
 82      -0.000000000005
 83       0.000000000016
 84      -0.000000000037
 85       0.000000000012
 86      -0.000000000003
 87      -0.000000000002
 88      -0.000000000001
 89       0.000000000033
 90      -0.000000000004
 91       0.000000000005
 92       0.000000000005
 93      -0.000000000009
 94      -0.000000000062
 95       0.000000000001
 96      -0.000000000004
 97      -0.000000000012
 98       0.000000000021
 99       0.000000000097
100       0.000000000005
101      -0.000000000017
102       0.000000000018
103      -0.000000000031
104      -0.000000000056
105      -0.000000000011
106       0.000000000002
107       0.000000000002
108      -0.000000000003
109       0.000000000011
110      -0.000000000005
111      -0.000000000009
112       0.000000000003
113      -0.000000000002
114      -0.000000000005
115       0.000000000000
116      -0.000000000006
117       0.000000000001
118       0.000000000009
119       0.000000000000
120      -0.000000000001
121       0.000000000000
122      -0.000000000001
123       0.000000000000
124       0.000000000001
125      -0.000000000021
126      -0.000000000001
127       0.000000000002
128       0.000000000002
129       0.000000000007
130       0.000000000004
131      -0.000000000002
132       0.000000000027
133       0.000000000004
134      -0.000000000003
135      -0.000000000003
136      -0.000000000004
137      -0.000000000002
138       0.000000000003
139      -0.000000000046
140      -0.000000000011
141       0.000000000005
142       0.000000000007
143       0.000000000002
144       0.000000000001
145      -0.000000000005
146       0.000000000089
147       0.000000000022
148      -0.000000000010
149      -0.000000000013
150      -0.000000000001
151       0.000000000000
152       0.000000000010
153      -0.000000000072
154      -0.000000000016
155       0.000000000005
156       0.000000000017
157       0.000000000000
158       0.000000000015
159      -0.000000000004
160       0.000000016738
161      -0.000000021204
162       0.000000025565
163      -0.000000203304
164      -0.000000481977
165      -0.000000544867
166      -0.000000567800
167      -0.000000942925
168       0.000000000001
169       0.000000000001
170       0.000000000411
171       0.000000000053
172       0.000000000063
173       0.000000068988
174       0.000000000310
175       0.000000000375
176       0.000000410817
177       0.000000000456
178       0.000000000547
179       0.000000599819
180       0.000000046209
181       0.000000000060
182       0.000000000072
183      -0.000000000001
184      -0.000000000001
185       0.000000209865
186       0.000000000275
187       0.000000000330
188       0.000000000002
189       0.000000000001
190       0.000000044821
191       0.000000000083
192       0.000000000100
193      -0.000000000001
194      -0.000000000000
195      -0.000000000000
196      -0.000000000000
197       0.000000016740
198      -0.000000021206
199       0.000000025566
200      -0.000000203312
201      -0.000000481984
202      -0.000000544850
203      -0.000000567680
204      -0.000000942799
205      -0.000000000000
206       0.000000000000
207      -0.000000000400
208      -0.000000000055
209      -0.000000000063
210      -0.000000069055
211      -0.000000000323
212      -0.000000000370
213      -0.000000410862
214      -0.000000000462
215      -0.000000000546
216      -0.000000599787
217       0.000000046187
218       0.000000000062
219       0.000000000072
220      -0.000000000002
221      -0.000000000001
222       0.000000209954
223       0.000000000282
224       0.000000000326
225       0.000000000005
226       0.000000000001
227      -0.000000044734
228      -0.000000000087
229      -0.000000000097
230       0.000000000001
231       0.000000000000
232       0.000000000000
233       0.000000000000
234       0.000000016739
235      -0.000000021206
236       0.000000025567
237      -0.000000203319
238      -0.000000481997
239      -0.000000544866
240      -0.000000567723
241      -0.000000942851
242       0.000000000001
243      -0.000000000403
244       0.000000000000
245       0.000000000104
246      -0.000000069037
247       0.000000000067
248       0.000000000615
249      -0.000000410851
250       0.000000000390
251       0.000000000889
252      -0.000000599809
253       0.000000000551
254      -0.000000023097
255       0.000000000000
256      -0.000000000075
257      -0.000000040004
258      -0.000000000119
259      -0.000000104965
260      -0.000000000000
261      -0.000000000337
262      -0.000000181804
263      -0.000000000544
264      -0.000000000063
265      -0.000000000041
266       0.000000027408
267      -0.000000000084
268      -0.000000000000
269       0.000000000160
270      -0.000000035383
271       0.000000016740
272      -0.000000021206
273       0.000000025567
274      -0.000000203321
275      -0.000000482003
276      -0.000000544873
277      -0.000000567737
278      -0.000000942880
279      -0.000000000001
280       0.000000000403
281      -0.000000000001
282      -0.000000000102
283       0.000000069033
284      -0.000000000063
285      -0.000000000606
286       0.000000410839
287      -0.000000000374
288      -0.000000000888
289       0.000000599813
290      -0.000000000553
291      -0.000000023096
292       0.000000000000
293      -0.000000000073
294      -0.000000040005
295      -0.000000000118
296      -0.000000104964
297      -0.000000000000
298      -0.000000000328
299      -0.000000181799
300      -0.000000000537
301       0.000000000061
302       0.000000000041
303      -0.000000027408
304       0.000000000078
305       0.000000000000
306      -0.000000000157
307       0.000000035384
308       0.000000016739
309      -0.000000021205
310       0.000000025565
311      -0.000000203311
312      -0.000000481989
313      -0.000000544877
314      -0.000000567802
315      -0.000000942945
316      -0.000000000411
317      -0.000000000001
318       0.000000000000
319      -0.000000068990
320      -0.000000000102