[Molden Format]
[Title]
 Molden file created by orca_2mkl for BaseName=/data01/Nikolayandreadi/heavy/cations/U_6+

[Atoms] AU
U    1  92          0.0415890928         1.5388172189        -3.6027401976 
[GTO]
  1 0
s   9 1.0 
 58915269.2040619999     15878.5363952950
 26779667.8200279996     -5784.7557541551
 12172576.2818310000      9027.3946318877
  5532989.2190140001       325.6868040056
  2514995.0995519999      4208.1243710139
  1143179.5907050001      1939.1491289669
   519627.0866840000      2669.4311026285
   236194.1303110000      2005.5172738201
   107360.9683230000      2058.9530636601
s   1 1.0 
    48800.4401470000      2340.0648682401
s   1 1.0 
    22182.0182490000      1295.4208592531
s   1 1.0 
    10082.7355680000       717.1233692609
s   1 1.0 
     4583.0616220000       396.9875296292
s   1 1.0 
     2083.2098280000       219.7656713216
s   1 1.0 
      946.9135580000       121.6586080998
s   1 1.0 
      430.4152540000        67.3481752053
s   1 1.0 
      195.6432970000        37.2828258248
s   1 1.0 
       88.9287710000        20.6391501245
s   1 1.0 
       40.4221690000        11.4254891526
s   1 1.0 
       18.3737130000         6.3249600754
s   1 1.0 
        8.3516880000         3.5013924304
s   1 1.0 
        3.7962220000         1.9383124866
s   1 1.0 
        1.7255550000         1.0730172334
s   1 1.0 
        0.7843430000         0.5940043302
s   1 1.0 
        0.3565200000         0.3288311987
s   1 1.0 
        0.1620540000         0.1820350044
s   1 1.0 
        0.0736610000         0.1007716339
s   1 1.0 
        0.0334820000         0.0557851540
s   1 1.0 
        0.0152190000         0.0308815919
p   8 1.0 
   839813.6669700000    124700.6825327761
   349922.3612380000     10799.0830937165
   145800.9838490000     36359.2991195727
    60750.4099370000     18163.2607860982
    25312.6708070000     17573.6487977577
    10546.9461700000     14195.6918408552
     4394.5609040000     13322.9302572221
     1831.0670430000     12107.7084625556
p   1 1.0 
      762.9446010000      5715.5278197986
p   1 1.0 
      317.8935840000      1913.3406184205
p   1 1.0 
      132.4556600000       640.5134283167
p   1 1.0 
       55.1898580000       214.4194529751
p   1 1.0 
       22.9957740000        71.7794502225
p   1 1.0 
        9.5815730000        24.0290224861
p   1 1.0 
        3.9923220000         8.0439996005
p   1 1.0 
        1.6634670000         2.6928231053
p   1 1.0 
        0.6931110000         0.9014540144
p   1 1.0 
        0.2887960000         0.3017720791
p   1 1.0 
        0.1203320000         0.1010221266
p   1 1.0 
        0.0501380000         0.0338180721
d   7 1.0 
    41049.8202270000     53262.0337640016
    16419.9280910000     26338.4031025142
     6567.9712360000     29332.4246479962
     2627.1884950000     27101.6066256769
     1050.8753980000     28990.3214062957
      420.3501590000     26289.6282344813
      168.1400640000     17820.8132210096
d   1 1.0 
       67.2560250000      4502.9764563892
d   1 1.0 
       26.9024100000       905.9509006942
d   1 1.0 
       10.7609640000       182.2676717095
d   1 1.0 
        4.3043860000        36.6703201328
d   1 1.0 
        1.7217540000         7.3776748265
d   1 1.0 
        0.6887020000         1.4843111023
d   1 1.0 
        0.2754810000         0.2986279634
d   1 1.0 
        0.1101920000         0.0600803838
d   1 1.0 
        0.0440770000         0.0120876293
f   6 1.0 
     4391.9602590000     58042.2322349557
     1689.2154840000     50234.6786083959
      649.6982630000     55932.1636963999
      249.8839470000     54589.9728655915
       96.1092110000     39385.8448814677
       36.9650810000     15829.5183325708
f   1 1.0 
       14.2173390000      2237.9031973610
f   1 1.0 
        5.4682070000       260.7061095750
f   1 1.0 
        2.1031570000        30.3711607432
f   1 1.0 
        0.8089060000         3.5381049160
f   1 1.0 
        0.3111180000         0.4121749941
f   1 1.0 
        0.1196610000         0.0480168308

[5D]
[7F]
[9G]
[MO]
 Sym=     1a
 Ene= -4.26309896650547E+03
 Spin= Alpha
 Occup= 2.000000
  1       0.084983857483
  2       0.065169366449
  3       0.111711517091
  4       0.177549853412
  5       0.264430839555
  6       0.303181260588
  7       0.192925296181
  8       0.032221791932
  9       0.000868911248
 10      -0.000612164570
 11       0.000446970140
 12      -0.000331436513
 13       0.000235763324
 14      -0.000158621338
 15       0.000104847908
 16      -0.000068929307
 17       0.000044464662
 18      -0.000027502747
 19       0.000015539561
 20      -0.000007116574
 21       0.000001917088
 22      -0.000000000000
 23       0.000000000000
 24      -0.000000000000
 25       0.000000000000
 26      -0.000000000000
 27       0.000000000000
 28      -0.000000000000
 29       0.000000000000
 30      -0.000000000000
 31       0.000000000000
 32      -0.000000000000
 33       0.000000000000
 34      -0.000000000000
 35       0.000000000000
 36      -0.000000000000
 37       0.000000000000
 38      -0.000000000000
 39       0.000000000000
 40       0.000000000000
 41       0.000000000001
 42      -0.000000000000
 43      -0.000000000000
 44      -0.000000000002
 45      -0.000000000000
 46       0.000000000000
 47       0.000000000002
 48       0.000000000000
 49      -0.000000000000
 50      -0.000000000002
 51      -0.000000000000
 52       0.000000000000
 53       0.000000000001
 54       0.000000000000
 55      -0.000000000000
 56      -0.000000000000
 57      -0.000000000000
 58       0.000000000000
 59       0.000000000000
 60       0.000000000000
 61       0.000000000002
 62      -0.000000000001
 63      -0.000000000013
 64       0.000000000008
 65       0.000000000017
 66      -0.000000000001
 67      -0.000000000000
 68      -0.000000000004
 69       0.000000000002
 70       0.000000000001
 71       0.000000000002
 72      -0.000000000000
 73      -0.000000000007
 74       0.000000000004
 75       0.000000000012
 76      -0.000000000001
 77       0.000000000000
 78       0.000000000001
 79      -0.000000000000
 80      -0.000000000003
 81       0.000000000000
 82       0.000000000000
 83       0.000000000001
 84      -0.000000000001
 85       0.000000000000
 86      -0.000000000000
 87       0.000000000000
 88       0.000000000001
 89       0.000000000000
 90      -0.000000000002
 91       0.000000000000
 92      -0.000000000000
 93      -0.000000000000
 94      -0.000000000000
 95       0.000000000001
 96      -0.000000000000
 97       0.000000000000
 98       0.000000000000
 99       0.000000000000
100      -0.000000000000
101       0.000000000000
102      -0.000000000000
103      -0.000000000000
104      -0.000000000000
105       0.000000000000
106      -0.000000000000
107       0.000000000000
108       0.000000000000
109       0.000000000000
110      -0.000000000000
111      -0.000000000000
112       0.000000000000
113      -0.000000000000
114       0.000000000000
115      -0.000000000000
116       0.000000000000
117      -0.000000000000
118       0.000000000000
119      -0.000000000000
120       0.000000000000
121      -0.000000000000
122       0.000000000000
123      -0.000000000000
124       0.000000000000
125      -0.000000000000
126       0.000000000000
127      -0.000000000000
128       0.000000000000
129      -0.000000000000
130       0.000000000000
131      -0.000000000000
132       0.000000000000
133      -0.000000000000
134       0.000000000000
135      -0.000000000000
136       0.000000000000
137      -0.000000000000
138       0.000000000000
139      -0.000000000000
140      -0.000000000000
141       0.000000000000
142      -0.000000000000
143      -0.000000000000
144       0.000000000000
145      -0.000000000000
146       0.000000000000
147       0.000000000000
148      -0.000000000000
149       0.000000000000
150      -0.000000000000
151      -0.000000000000
152      -0.000000000000
153      -0.000000000000
154      -0.000000000000
155       0.000000000000
156      -0.000000000000
157       0.000000000000
158      -0.000000000000
159       0.000000000000
 Sym=     1a
 Ene= -8.07076180599950E+02
 Spin= Alpha
 Occup= 2.000000
  1      -0.035876641935
  2      -0.029713483515
  3      -0.049764194279
  4      -0.086682047198
  5      -0.138724669890
  6      -0.177775315974
  7      -0.072232172212
  8       0.369127177645
  9       0.610961129750
 10       0.169974044262
 11      -0.002094098653
 12       0.001800649876
 13      -0.000966373673
 14       0.000500409564
 15      -0.000277543204
 16       0.000172837535
 17      -0.000109462165
 18       0.000066737307
 19      -0.000037505205
 20       0.000017134470
 21      -0.000004610722
 22      -0.000000000001
 23      -0.000000000001
 24       0.000000000001
 25      -0.000000000001
 26      -0.000000000001
 27       0.000000000002
 28      -0.000000000003
 29      -0.000000000002
 30       0.000000000003
 31       0.000000000001
 32      -0.000000000002
 33       0.000000000002
 34      -0.000000000001
 35       0.000000000001
 36      -0.000000000001
 37       0.000000000000
 38      -0.000000000004
 39       0.000000000001
 40       0.000000000001
 41       0.000000000012
 42      -0.000000000000
 43      -0.000000000003
 44      -0.000000000043
 45      -0.000000000001
 46       0.000000000005
 47       0.000000000052
 48       0.000000000002
 49      -0.000000000004
 50      -0.000000000037
 51      -0.000000000001
 52       0.000000000002
 53       0.000000000021
 54       0.000000000001
 55      -0.000000000001
 56      -0.000000000010
 57      -0.000000000000
 58       0.000000000000
 59       0.000000000003
 60       0.000000000000
 61       0.000000000040
 62      -0.000000000014
 63      -0.000000000265
 64       0.000000000163
 65       0.000000000331
 66      -0.000000000089
 67       0.000000000032
 68       0.000000000495
 69      -0.000000000310
 70      -0.000000000703
 71       0.000000000028
 72      -0.000000000001
 73      -0.000000000030
 74       0.000000000008
 75       0.000000000101
 76      -0.000000000022
 77       0.000000000005
 78       0.000000000080
 79      -0.000000000037
 80      -0.000000000137
 81       0.000000000017
 82      -0.000000000005
 83      -0.000000000070
 84       0.000000000021
 85       0.000000000109
 86      -0.000000000006
 87      -0.000000000000
 88      -0.000000000003
 89       0.000000000021
 90      -0.000000000008
 91       0.000000000005
 92      -0.000000000001
 93      -0.000000000011
 94      -0.000000000005
 95       0.000000000020
 96      -0.000000000002
 97       0.000000000000
 98       0.000000000005
 99       0.000000000003
100      -0.000000000009
101       0.000000000001
102      -0.000000000000
103      -0.000000000002
104      -0.000000000001
105       0.000000000004
106      -0.000000000000
107       0.000000000000
108       0.000000000001
109       0.000000000000
110      -0.000000000001
111      -0.000000000006
112       0.000000000000
113      -0.000000000001
114       0.000000000001
115      -0.000000000006
116       0.000000000010
117       0.000000000000
118       0.000000000005
119       0.000000000000
120       0.000000000001
121      -0.000000000001
122       0.000000000004
123      -0.000000000008
124       0.000000000000
125      -0.000000000003
126      -0.000000000000
127      -0.000000000001
128       0.000000000000
129      -0.000000000003
130       0.000000000005
131       0.000000000001
132       0.000000000002
133       0.000000000000
134       0.000000000000
135      -0.000000000000
136       0.000000000001
137      -0.000000000003
138      -0.000000000001
139      -0.000000000001
140      -0.000000000000
141      -0.000000000000
142      -0.000000000000
143      -0.000000000000
144       0.000000000001
145       0.000000000001
146       0.000000000001
147       0.000000000000
148      -0.000000000000
149      -0.000000000000
150      -0.000000000000
151      -0.000000000001
152      -0.000000000003
153       0.000000000000
154      -0.000000000000
155       0.000000000000
156      -0.000000000000
157       0.000000000000
158      -0.000000000000
159       0.000000000001
 Sym=     1a
 Ene= -6.77730502803469E+02
 Spin= Alpha
 Occup= 2.000000
  1       0.000000000000
  2       0.000000000000
  3       0.000000000000
  4       0.000000000001
  5       0.000000000002
  6       0.000000000001
  7       0.000000000002
  8      -0.000000000005
  9      -0.000000000005
 10      -0.000000000004
 11       0.000000000007
 12      -0.000000000005
 13      -0.000000000006
 14       0.000000000032
 15      -0.000000000040
 16       0.000000000018
 17       0.000000000017
 18      -0.000000000032
 19       0.000000000026
 20      -0.000000000010
 21       0.000000000002
 22      -0.126140561764
 23      -0.101714142064
 24       0.073997707500
 25      -0.214727509368
 26      -0.173146718925
 27       0.125965377101
 28      -0.323584844130
 29      -0.260924434974
 30       0.189824242992
 31      -0.170213183864
 32      -0.137252345499
 33       0.099851984296
 34      -0.005711965611
 35      -0.004605875173
 36       0.003350804487
 37      -0.003096913171
 38      -0.002497213122
 39       0.001816738976
 40       0.002143566583
 41       0.001728476810
 42      -0.001257478251
 43      -0.001316440466
 44      -0.001061519076
 45       0.000772262112
 46       0.000790253500
 47       0.000637225294
 48      -0.000463585595
 49      -0.000468029713
 50      -0.000377398355
 51       0.000274559788
 52       0.000261641866
 53       0.000210976369
 54      -0.000153486698
 55      -0.000126460269
 56      -0.000101971939
 57       0.000074185257
 58       0.000039580990
 59       0.000031916351
 60      -0.000023219355
 61       0.000000000000
 62      -0.000000000000
 63      -0.000000000000
 64      -0.000000000000
 65       0.000000000000
 66      -0.000000000002
 67      -0.000000000000
 68      -0.000000000000
 69      -0.000000000000
 70      -0.000000000001
 71       0.000000000008
 72       0.000000000000
 73      -0.000000000001
 74       0.000000000000
 75       0.000000000001
 76      -0.000000000011
 77      -0.000000000000
 78       0.000000000004
 79      -0.000000000001
 80      -0.000000000000
 81       0.000000000007
 82      -0.000000000000
 83      -0.000000000003
 84       0.000000000001
 85      -0.000000000000
 86      -0.000000000004
 87       0.000000000000
 88       0.000000000002
 89       0.000000000000
 90       0.000000000000
 91       0.000000000003
 92      -0.000000000000
 93      -0.000000000001
 94      -0.000000000001
 95      -0.000000000000
 96      -0.000000000002
 97       0.000000000000
 98       0.000000000001
 99       0.000000000002
100       0.000000000001
101       0.000000000001
102      -0.000000000000
103      -0.000000000001
104      -0.000000000001
105      -0.000000000000
106      -0.000000000000
107       0.000000000000
108       0.000000000000
109       0.000000000000
110       0.000000000000
111       0.000000000032
112      -0.000000000015
113       0.000000000033
114       0.000000000014
115      -0.000000000087
116       0.000000000030
117      -0.000000000097
118       0.000000000014
119       0.000000000018
120       0.000000000006
121      -0.000000000018
122       0.000000000015
123       0.000000000002
124       0.000000000046
125      -0.000000000016
126      -0.000000000015
127      -0.000000000009
128       0.000000000014
129      -0.000000000002
130      -0.000000000006
131      -0.000000000028
132       0.000000000002
133       0.000000000003
134       0.000000000001
135      -0.000000000004
136       0.000000000003
137      -0.000000000001
138       0.000000000009
139       0.000000000001
140       0.000000000000
141      -0.000000000001
142       0.000000000003
143      -0.000000000004
144      -0.000000000001
145      -0.000000000004
146      -0.000000000001
147      -0.000000000001
148      -0.000000000000
149      -0.000000000002
150       0.000000000002
151       0.000000000000
152       0.000000000002
153       0.000000000000
154       0.000000000000
155      -0.000000000000
156       0.000000000000
157      -0.000000000001
158      -0.000000000000
159      -0.000000000001
 Sym=     1a
 Ene= -6.77730502682159E+02
 Spin= Alpha
 Occup= 2.000000
  1      -0.000000000000
  2      -0.000000000000
  3      -0.000000000000
  4      -0.000000000000
  5      -0.000000000001
  6       0.000000000000
  7      -0.000000000002
  8       0.000000000003
  9       0.000000000001
 10       0.000000000004
 11      -0.000000000008
 12       0.000000000012
 13      -0.000000000014
 14       0.000000000018
 15      -0.000000000017
 16       0.000000000010
 17      -0.000000000000
 18      -0.000000000003
 19       0.000000000001
 20       0.000000000000
 21      -0.000000000000
 22      -0.100928361342
 23       0.019305405861
 24      -0.145511634981
 25      -0.171809094226
 26       0.032863352288
 27      -0.247702646443
 28      -0.258908693600
 29       0.049523616003
 30      -0.373276914593
 31      -0.136192018449
 32       0.026050578413
 33      -0.196352373235
 34      -0.004570293401
 35       0.000874197974
 36      -0.006589137641
 37      -0.002477921046
 38       0.000473972536
 39      -0.003572497741
 40       0.001715123586
 41      -0.000328065931
 42       0.002472748335
 43      -0.001053318395
 44       0.000201476957
 45      -0.001518602703
 46       0.000632302462
 47      -0.000120945743
 48       0.000911610615
 49      -0.000374482795
 50       0.000071630435
 51      -0.000539903783
 52       0.000209346488
 53      -0.000040043442
 54       0.000301821506
 55      -0.000101184163
 56       0.000019354335
 57      -0.000145880433
 58       0.000031669784
 59      -0.000006057742
 60       0.000045659337
 61      -0.000000000000
 62      -0.000000000000
 63       0.000000000002
 64      -0.000000000000
 65       0.000000000003
 66      -0.000000000003
 67      -0.000000000004
 68      -0.000000000001
 69      -0.000000000000
 70      -0.000000000002
 71       0.000000000008
 72       0.000000000003
 73      -0.000000000000
 74       0.000000000000
 75       0.000000000001
 76      -0.000000000010
 77      -0.000000000002
 78       0.000000000004
 79      -0.000000000001
 80      -0.000000000001
 81       0.000000000007
 82       0.000000000001
 83      -0.000000000004
 84       0.000000000001
 85       0.000000000001
 86      -0.000000000004
 87      -0.000000000001
 88       0.000000000002
 89      -0.000000000000
 90      -0.000000000001
 91       0.000000000002
 92       0.000000000001
 93      -0.000000000001
 94       0.000000000000
 95       0.000000000000
 96      -0.000000000000
 97      -0.000000000000
 98       0.000000000000
 99      -0.000000000001
100      -0.000000000001
101       0.000000000000
102       0.000000000000
103       0.000000000000
104       0.000000000001
105       0.000000000001
106      -0.000000000000
107      -0.000000000000
108      -0.000000000000
109       0.000000000000
110      -0.000000000000
111      -0.000000000002
112       0.000000000003
113      -0.000000000095
114       0.000000000028
115       0.000000000031
116      -0.000000000044
117      -0.000000000056
118      -0.000000000032
119       0.000000000039
120      -0.000000000004
121       0.000000000006
122      -0.000000000025
123      -0.000000000005
124       0.000000000038
125       0.000000000028
126      -0.000000000034
127       0.000000000016
128      -0.000000000010
129       0.000000000018
130       0.000000000009
131      -0.000000000026
132      -0.000000000006
133       0.000000000006
134       0.000000000001
135       0.000000000002
136      -0.000000000004
137       0.000000000000
138       0.000000000007
139       0.000000000004
140      -0.000000000001
141      -0.000000000002
142       0.000000000001
143      -0.000000000001
144      -0.000000000002
145      -0.000000000003
146      -0.000000000002
147       0.000000000001
148       0.000000000002
149      -0.000000000000
150       0.000000000001
151       0.000000000001
152       0.000000000002
153       0.000000000001
154      -0.000000000000
155      -0.000000000001
156       0.000000000000
157      -0.000000000000
158      -0.000000000000
159      -0.000000000001
 Sym=     1a
 Ene= -6.77730502508668E+02
 Spin= Alpha
 Occup= 2.000000
  1       0.000000000000
  2       0.000000000000
  3       0.000000000000
  4      -0.000000000000
  5       0.000000000000
  6      -0.000000000000
  7       0.000000000000
  8       0.000000000000
  9      -0.000000000001
 10       0.000000000001
 11      -0.000000000002
 12       0.000000000005
 13      -0.000000000010
 14       0.000000000025
 15      -0.000000000029
 16       0.000000000013
 17       0.000000000011
 18      -0.000000000022
 19       0.000000000017
 20      -0.000000000007
 21       0.000000000002
 22      -0.075065926279
 23       0.144963455196
 24       0.071299173230
 25      -0.127783792734
 26       0.246769486916
 27       0.121371695864
 28      -0.192564514415
 29       0.371870684095
 30       0.182901768509
 31      -0.101293431017
 32       0.195612663117
 33       0.096210601043
 34      -0.003399176842
 35       0.006564315454
 36       0.003228608645
 37      -0.001842964852
 38       0.003559038913
 39       0.001750486229
 40       0.001275630859
 41      -0.002463432693
 42      -0.001211620639
 43      -0.000783410295
 44       0.001512881662
 45       0.000744099342
 46       0.000470277803
 47      -0.000908176302
 48      -0.000446679608
 49      -0.000278523264
 50       0.000537869803
 51       0.000264547172
 52       0.000155702392
 53      -0.000300684452
 54      -0.000147889360
 55      -0.000075256176
 56       0.000145330857
 57       0.000071479876
 58       0.000023554544
 59      -0.000045487324
 60      -0.000022372594
 61       0.000000000001
 62       0.000000000000
 63       0.000000000000
 64       0.000000000000
 65      -0.000000000001
 66      -0.000000000001
 67       0.000000000000
 68      -0.000000000000
 69       0.000000000000
 70      -0.000000000000
 71       0.000000000005
 72      -0.000000000000
 73      -0.000000000001
 74      -0.000000000001
 75       0.000000000000
 76      -0.000000000006
 77      -0.000000000000
 78       0.000000000002
 79      -0.000000000000
 80       0.000000000000
 81       0.000000000004
 82      -0.000000000000
 83      -0.000000000001
 84       0.000000000000
 85      -0.000000000000
 86      -0.000000000002
 87       0.000000000000
 88       0.000000000001
 89       0.000000000000
 90       0.000000000000
 91       0.000000000002
 92      -0.000000000000
 93      -0.000000000001
 94      -0.000000000001
 95      -0.000000000000
 96      -0.000000000001
 97       0.000000000000
 98       0.000000000001
 99       0.000000000001
100       0.000000000001
101       0.000000000001
102      -0.000000000000
103      -0.000000000000
104      -0.000000000001
105      -0.000000000000
106      -0.000000000000
107       0.000000000000
108       0.000000000000
109       0.000000000000
110       0.000000000000
111      -0.000000000040
112       0.000000000025
113       0.000000000002
114      -0.000000000072
115      -0.000000000056
116      -0.000000000112
117      -0.000000000001
118       0.000000000058
119       0.000000000015
120      -0.000000000015
121       0.000000000034
122       0.000000000034
123       0.000000000002
124      -0.000000000005
125      -0.000000000045
126      -0.000000000017
127       0.000000000014
128      -0.000000000021
129      -0.000000000022
130       0.000000000013
131       0.000000000004
132       0.000000000011
133       0.000000000003
134      -0.000000000003
135       0.000000000006
136       0.000000000006
137       0.000000000000
138      -0.000000000001
139      -0.000000000004
140      -0.000000000000
141       0.000000000001
142      -0.000000000002
143      -0.000000000004
144      -0.000000000001
145       0.000000000000
146       0.000000000002
147      -0.000000000000
148      -0.000000000001
149       0.000000000001
150       0.000000000002
151      -0.000000000000
152      -0.000000000000
153      -0.000000000001
154       0.000000000000
155       0.000000000000
156      -0.000000000001
157      -0.000000000001
158       0.000000000000
159       0.000000000000
 Sym=     1a
 Ene= -2.09147293694202E+02
 Spin= Alpha
 Occup= 2.000000
  1      -0.017570747785
  2      -0.014771633361
  3      -0.024513953441
  4      -0.043858084508
  5      -0.070031185563
  6      -0.094381755948
  7      -0.026315461856
  8       0.294908081612
  9       0.691903359372
 10      -0.199322031117
 11      -0.987612665530
 12      -0.139631093361
 13      -0.019487745432
 14       0.014936160995
 15      -0.010546276034
 16       0.007224490614
 17      -0.004753166804
 18       0.002964563268
 19      -0.001681933030
 20       0.000771683528
 21      -0.000208041001
 22       0.000000000001
 23      -0.000000000002
 24      -0.000000000000
 25      -0.000000000000
 26      -0.000000000003
 27       0.000000000000
 28       0.000000000009
 29      -0.000000000006
 30      -0.000000000003
 31      -0.000000000012
 32       0.000000000003
 33       0.000000000004
 34      -0.000000000005
 35       0.000000000012
 36       0.000000000001
 37      -0.000000000002
 38       0.000000000008
 39       0.000000000002
 40       0.000000000001
 41      -0.000000000008
 42      -0.000000000003
 43       0.000000000000
 44       0.000000000033
 45       0.000000000011
 46      -0.000000000002
 47      -0.000000000040
 48      -0.000000000012
 49       0.000000000002
 50       0.000000000029
 51       0.000000000008
 52      -0.000000000001
 53      -0.000000000016
 54      -0.000000000004
 55       0.000000000000
 56       0.000000000008
 57       0.000000000002
 58      -0.000000000000
 59      -0.000000000002
 60      -0.000000000001
 61       0.000000000291
 62      -0.000000000286
 63      -0.000000003259
 64       0.000000002049
 65       0.000000004241
 66       0.000000000942
 67      -0.000000000573
 68      -0.000000008189
 69       0.000000005087
 70       0.000000010459
 71       0.000000000635
 72      -0.000000000399
 73      -0.000000005686
 74       0.000000003632
 75       0.000000007187
 76      -0.000000000172
 77       0.000000000103
 78       0.000000001493
 79      -0.000000001008
 80      -0.000000001873
 81       0.000000000162
 82      -0.000000000097
 83      -0.000000001413
 84       0.000000000932
 85       0.000000001779
 86      -0.000000000033
 87       0.000000000019
 88       0.000000000288
 89      -0.000000000215
 90      -0.000000000358
 91       0.000000000034
 92      -0.000000000021
 93      -0.000000000309
 94       0.000000000212
 95       0.000000000389
 96      -0.000000000017
 97       0.000000000010
 98       0.000000000155
 99      -0.000000000106
100      -0.000000000195
101       0.000000000008
102      -0.000000000005
103      -0.000000000076
104       0.000000000052
105       0.000000000096
106      -0.000000000003
107       0.000000000002
108       0.000000000025
109      -0.000000000017
110      -0.000000000032
111       0.000000000052
112       0.000000000019
113       0.000000000005
114      -0.000000000001
115       0.000000000039
116      -0.000000000075
117      -0.000000000000
118      -0.000000000037
119      -0.000000000014
120      -0.000000000003
121       0.000000000001
122      -0.000000000028
123       0.000000000053
124       0.000000000001
125       0.000000000023
126       0.000000000009
127       0.000000000002
128      -0.000000000000
129       0.000000000017
130      -0.000000000032
131       0.000000000001
132      -0.000000000013
133      -0.000000000006
134      -0.000000000000
135      -0.000000000000
136      -0.000000000008
137       0.000000000018
138       0.000000000001
139       0.000000000010
140       0.000000000006
141      -0.000000000002
142       0.000000000002
143      -0.000000000001
144      -0.000000000010
145      -0.000000000009
146      -0.000000000005
147      -0.000000000007
148       0.000000000003
149      -0.000000000001
150       0.000000000004
151       0.000000000003
152       0.000000000043
153      -0.000000000002
154       0.000000000004
155      -0.000000000005
156       0.000000000005
157      -0.000000000006
158       0.000000000004
159      -0.000000000020
 Sym=     1a
 Ene= -1.72527507153850E+02
 Spin= Alpha
 Occup= 2.000000
  1      -0.000000000000
  2      -0.000000000000
  3      -0.000000000000
  4      -0.000000000001
  5      -0.000000000000
  6      -0.000000000002
  7       0.000000000001
  8      -0.000000000001
  9       0.000000000017
 10      -0.000000000031
 11       0.000000000079
 12      -0.000000000150
 13       0.000000000098
 14      -0.000000000024
 15      -0.000000000017
 16       0.000000000009
 17       0.000000000011
 18       0.000000000023
 19      -0.000000000050
 20       0.000000000038
 21      -0.000000000012
 22      -0.041932051115
 23       0.081030061338
 24       0.039837680215
 25      -0.076675590584
 26       0.148168945780
 27       0.072845891788
 28      -0.117602531052
 29       0.227256717742
 30       0.111728663396
 31       0.050878238428
 32      -0.098317794404
 33      -0.048337034283
 34       0.312540278077
 35      -0.603957050268
 36      -0.296929897808
 37       0.107593233306
 38      -0.207914615726
 39      -0.102219297831
 40      -0.003212759440
 41       0.006208379692
 42       0.003052292454
 43       0.002558107999
 44      -0.004943322412
 45      -0.002430338742
 46      -0.001459290525
 47       0.002819952692
 48       0.001386403658
 49       0.000821278773
 50      -0.001587050174
 51      -0.000780258538
 52      -0.000452701045
 53       0.000874805604
 54       0.000430090082
 55       0.000217867355
 56      -0.000421009821
 57      -0.000206985580
 58      -0.000068082315
 59       0.000131563200
 60       0.000064681822
 61      -0.000000000011
 62      -0.000000000011
 63      -0.000000000003
 64       0.000000000010