[Molden Format]
[Title]
 Molden file created by orca_2mkl for BaseName=/data01/Nikolayandreadi/heavy/cations/Cf_3+

[Atoms] AU
Cf   1  98          0.0415890928         1.5388172189        -3.6027401976 
[GTO]
  1 0
s   9 1.0 
 66908672.6715350002     19723.9240328506
 30413033.0325159989     -7309.2804703746
 13824105.9238709994     11108.6474302186
  6283684.5108500002       192.0060418558
  2856220.2322049998      5023.9009021856
  1298281.9237289999      2140.5371375207
   590128.1471500000      3038.5742012568
   268240.0668860000      2175.2400512026
   121927.3031300000      2221.7953317788
s   1 1.0 
    55421.5014230000      2574.3572064150
s   1 1.0 
    25191.5915560000      1425.1211877022
s   1 1.0 
    11450.7234340000       788.9233065632
s   1 1.0 
     5204.8742880000       436.7347766740
s   1 1.0 
     2365.8519490000       241.7690839771
s   1 1.0 
     1075.3872500000       133.8393302052
s   1 1.0 
      488.8123860000        74.0912196027
s   1 1.0 
      222.1874480000        41.0156626867
s   1 1.0 
      100.9942950000        22.7055864563
s   1 1.0 
       45.9064980000        12.5694337994
s   1 1.0 
       20.8665900000         6.9582287883
s   1 1.0 
        9.4848140000         3.8519594466
s   1 1.0 
        4.3112790000         2.1323804331
s   1 1.0 
        1.9596720000         1.1804500986
s   1 1.0 
        0.8907600000         0.6534774748
s   1 1.0 
        0.4048910000         0.3617542855
s   1 1.0 
        0.1840410000         0.2002608386
s   1 1.0 
        0.0836550000         0.1108610582
s   1 1.0 
        0.0380250000         0.0613708318
s   1 1.0 
        0.0172840000         0.0339737343
p   8 1.0 
   960041.3086390001    172523.9153263621
   400017.2119330000     14286.9049780161
   166673.8383050000     49107.5544422491
    69447.4326270000     23735.2952189188
    28936.4302610000     22600.1347429415
    12056.8459420000     17646.8428423021
     5023.6858090000     16065.6009367248
     2093.2024210000     14110.8439338867
p   1 1.0 
      872.1676750000      6756.0066901341
p   1 1.0 
      363.4031980000      2261.6532395791
p   1 1.0 
      151.4179990000       757.1152016567
p   1 1.0 
       63.0908330000       253.4532793460
p   1 1.0 
       26.2878470000        84.8464861226
p   1 1.0 
       10.9532700000        28.4033672666
p   1 1.0 
        4.5638620000         9.5083622211
p   1 1.0 
        1.9016090000         3.1830364955
p   1 1.0 
        0.7923370000         1.0655590178
p   1 1.0 
        0.3301410000         0.3567092866
p   1 1.0 
        0.1375590000         0.1194129288
p   1 1.0 
        0.0573160000         0.0399746740
d   7 1.0 
    47740.9667690000     78536.3810533106
    19096.3867080000     37761.1372638120
     7638.5546830000     41043.0738245767
     3055.4218730000     36817.1467409450
     1222.1687490000     38433.7288352161
      488.8675000000     34313.3838037257
      195.5470000000     23183.6627679842
d   1 1.0 
       78.2188000000      5864.9537829766
d   1 1.0 
       31.2875200000      1179.9662320416
d   1 1.0 
       12.5150080000       237.3966377706
d   1 1.0 
        5.0060030000        47.7616716090
d   1 1.0 
        2.0024010000         9.6091379266
d   1 1.0 
        0.8009610000         1.9332587359
d   1 1.0 
        0.3203840000         0.3889502162
d   1 1.0 
        0.1281540000         0.0782530681
d   1 1.0 
        0.0512610000         0.0157433613
f   6 1.0 
     5522.2215080000     92384.3438002047
     2123.9313490000     80951.8912327257
      816.8966730000     85931.6776874870
      314.1910280000     85138.5468535653
      120.8427030000     63169.9712808570
       46.4779630000     26779.8441428601
f   1 1.0 
       17.8761400000      3746.4160948553
f   1 1.0 
        6.8754380000       436.4413716492
f   1 1.0 
        2.6443990000        50.8435415163
f   1 1.0 
        1.0170770000         5.9230609856
f   1 1.0 
        0.3911830000         0.6900094179
f   1 1.0 
        0.1504550000         0.0803831434

[5D]
[7F]
[9G]
[MO]
 Sym=     1a
 Ene= -4.97449273499062E+03
 Spin= Alpha
 Occup= 1.000000
  1      -0.100158630920
  2      -0.072459570942
  3      -0.121279779071
  4      -0.184967978754
  5      -0.265553022197
  6      -0.291288444047
  7      -0.179037488666
  8      -0.028409001606
  9      -0.001033680226
 10       0.000757093816
 11      -0.000544629927
 12       0.000392916912
 13      -0.000275748890
 14       0.000185419373
 15      -0.000122629451
 16       0.000080555305
 17      -0.000051932744
 18       0.000032120611
 19      -0.000018148808
 20       0.000008311578
 21      -0.000002238992
 22       0.000000000000
 23      -0.000000000001
 24      -0.000000000000
 25      -0.000000000000
 26       0.000000000001
 27       0.000000000000
 28       0.000000000000
 29      -0.000000000001
 30      -0.000000000000
 31      -0.000000000000
 32       0.000000000000
 33       0.000000000000
 34       0.000000000000
 35      -0.000000000000
 36      -0.000000000000
 37      -0.000000000000
 38       0.000000000000
 39       0.000000000000
 40       0.000000000000
 41      -0.000000000000
 42      -0.000000000000
 43      -0.000000000000
 44       0.000000000000
 45       0.000000000000
 46       0.000000000000
 47      -0.000000000000
 48      -0.000000000000
 49      -0.000000000000
 50       0.000000000000
 51       0.000000000000
 52       0.000000000000
 53      -0.000000000000
 54      -0.000000000000
 55      -0.000000000000
 56       0.000000000000
 57       0.000000000000
 58       0.000000000000
 59      -0.000000000000
 60      -0.000000000000
 61       0.000000033760
 62      -0.000000029107
 63       0.000000032109
 64       0.000000012861
 65      -0.000000021583
 66      -0.000000027398
 67       0.000000023657
 68      -0.000000026065
 69      -0.000000010404
 70       0.000000017504
 71       0.000000018035
 72      -0.000000015552
 73       0.000000017157
 74       0.000000006869
 75      -0.000000011532
 76      -0.000000010432
 77       0.000000009001
 78      -0.000000009925
 79      -0.000000003968
 80       0.000000006668
 81       0.000000005584
 82      -0.000000004822
 83       0.000000005313
 84       0.000000002120
 85      -0.000000003568
 86      -0.000000002965
 87       0.000000002557
 88      -0.000000002821
 89      -0.000000001129
 90       0.000000001896
 91       0.000000001942
 92      -0.000000001678
 93       0.000000001847
 94       0.000000000738
 95      -0.000000001240
 96      -0.000000000978
 97       0.000000000845
 98      -0.000000000931
 99      -0.000000000373
100       0.000000000626
101       0.000000000465
102      -0.000000000403
103       0.000000000443
104       0.000000000178
105      -0.000000000298
106      -0.000000000157
107       0.000000000136
108      -0.000000000149
109      -0.000000000060
110       0.000000000101
111       0.000000000000
112      -0.000000000000
113       0.000000000001
114       0.000000000001
115       0.000000000000
116      -0.000000000001
117      -0.000000000000
118      -0.000000000000
119       0.000000000000
120      -0.000000000001
121      -0.000000000001
122      -0.000000000000
123       0.000000000000
124       0.000000000004
125       0.000000000000
126      -0.000000000000
127       0.000000000000
128       0.000000000001
129      -0.000000000000
130      -0.000000000000
131      -0.000000000003
132      -0.000000000000
133       0.000000000000
134      -0.000000000000
135      -0.000000000000
136       0.000000000000
137       0.000000000000
138       0.000000000001
139       0.000000000000
140      -0.000000000000
141       0.000000000000
142       0.000000000000
143      -0.000000000000
144       0.000000000000
145      -0.000000000001
146       0.000000000000
147       0.000000000000
148      -0.000000000000
149       0.000000000000
150       0.000000000000
151      -0.000000000000
152       0.000000000000
153       0.000000000000
154      -0.000000000001
155       0.000000000000
156      -0.000000000000
157      -0.000000000000
158      -0.000000000000
159      -0.000000000000
 Sym=     1a
 Ene= -9.62781394925041E+02
 Spin= Alpha
 Occup= 1.000000
  1       0.043746387026
  2       0.034277620554
  3       0.055732789191
  4       0.093423053694
  5       0.142260053730
  6       0.168912854397
  7       0.039498361762
  8      -0.403881710321
  9      -0.585158967686
 10      -0.141418390880
 11       0.001084178453
 12      -0.000452713083
 13       0.000050226885
 14       0.000094864009
 15      -0.000112523178
 16       0.000083568868
 17      -0.000056022379
 18       0.000035662113
 19      -0.000020352505
 20       0.000009364029
 21      -0.000002527704
 22      -0.000000000001
 23      -0.000000000001
 24      -0.000000000000
 25      -0.000000000001
 26      -0.000000000001
 27       0.000000000000
 28      -0.000000000001
 29      -0.000000000004
 30      -0.000000000000
 31      -0.000000000001
 32       0.000000000003
 33       0.000000000001
 34       0.000000000000
 35      -0.000000000009
 36      -0.000000000002
 37      -0.000000000000
 38       0.000000000009
 39       0.000000000002
 40       0.000000000000
 41      -0.000000000006
 42      -0.000000000001
 43      -0.000000000000
 44       0.000000000004
 45       0.000000000001
 46       0.000000000000
 47      -0.000000000002
 48      -0.000000000000
 49      -0.000000000000
 50       0.000000000001
 51       0.000000000000
 52       0.000000000000
 53      -0.000000000001
 54      -0.000000000000
 55      -0.000000000000
 56       0.000000000000
 57       0.000000000000
 58       0.000000000000
 59      -0.000000000000
 60      -0.000000000000
 61       0.000002523638
 62      -0.000002177875
 63       0.000002400447
 64       0.000000959313
 65      -0.000001612408
 66       0.000000874728
 67      -0.000000754422
 68       0.000000832319
 69       0.000000332973
 70      -0.000000559457
 71      -0.000000215271
 72       0.000000185161
 73      -0.000000204824
 74      -0.000000082485
 75       0.000000137955
 76       0.000000111002
 77      -0.000000095589
 78       0.000000105617
 79       0.000000042442
 80      -0.000000071082
 81      -0.000000055630
 82       0.000000048005
 83      -0.000000052936
 84      -0.000000021185
 85       0.000000035580
 86       0.000000028330
 87      -0.000000024379
 88       0.000000026947
 89       0.000000010867
 90      -0.000000018149
 91      -0.000000022396
 92       0.000000019336
 93      -0.000000021291
 94      -0.000000008532
 95       0.000000014303
 96       0.000000010771
 97      -0.000000009275
 98       0.000000010243
 99       0.000000004115
100      -0.000000006890
101      -0.000000005084
102       0.000000004378
103      -0.000000004835
104      -0.000000001941
105       0.000000003252
106       0.000000001716
107      -0.000000001479
108       0.000000001632
109       0.000000000656
110      -0.000000001098
111      -0.000000000000
112       0.000000000000
113       0.000000000000
114       0.000000000001
115       0.000000000000
116      -0.000000000000
117      -0.000000000000
118       0.000000000000
119      -0.000000000000
120       0.000000000000
121      -0.000000000001
122       0.000000000000
123       0.000000000000
124       0.000000000003
125      -0.000000000000
126       0.000000000000
127      -0.000000000000
128       0.000000000000
129      -0.000000000000
130       0.000000000000
131      -0.000000000003
132       0.000000000000
133      -0.000000000000
134       0.000000000000
135      -0.000000000000
136       0.000000000000
137       0.000000000000
138       0.000000000002
139      -0.000000000000
140       0.000000000000
141      -0.000000000000
142       0.000000000000
143      -0.000000000000
144      -0.000000000000
145      -0.000000000001
146       0.000000000000
147       0.000000000000
148       0.000000000000
149      -0.000000000000
150       0.000000000000
151       0.000000000000
152       0.000000000003
153      -0.000000000000
154      -0.000000000001
155      -0.000000000000
156      -0.000000000000
157      -0.000000000000
158      -0.000000000000
159      -0.000000000001
 Sym=     1a
 Ene= -7.90417165940659E+02
 Spin= Alpha
 Occup= 1.000000
  1       0.000000000000
  2       0.000000000000
  3       0.000000000000
  4       0.000000000000
  5       0.000000000001
  6       0.000000000001
  7      -0.000000000002
  8       0.000000000004
  9      -0.000000000017
 10       0.000000000011
 11      -0.000000000005
 12      -0.000000000003
 13       0.000000000023
 14      -0.000000000033
 15       0.000000000034
 16      -0.000000000033
 17       0.000000000026
 18      -0.000000000012
 19      -0.000000000002
 20       0.000000000010
 21      -0.000000000007
 22       0.059806175808
 23       0.174207651760
 24      -0.044340667349
 25       0.097539462556
 26       0.284119833332
 27      -0.072316358730
 28       0.143042984087
 29       0.416665704507
 30      -0.106052950008
 31       0.073008017741
 32       0.212662911375
 33      -0.054128594190
 34       0.002081083067
 35       0.006061924607
 36      -0.001542927880
 37       0.001372434902
 38       0.003997725655
 39      -0.001017531668
 40      -0.000938998217
 41      -0.002735180522
 42       0.000696179050
 43       0.000576824346
 44       0.001680214988
 45      -0.000427661104
 46      -0.000346142143
 47      -0.001008267538
 48       0.000256631898
 49       0.000204781044
 50       0.000596500753
 51      -0.000151825921
 52      -0.000114491699
 53      -0.000333499560
 54       0.000084884847
 55       0.000055345057
 56       0.000161212998
 57      -0.000041033166
 58      -0.000017324786
 59      -0.000050464857
 60       0.000012844704
 61      -0.000000000001
 62       0.000000000000
 63       0.000000000002
 64       0.000000000002
 65      -0.000000000001
 66       0.000000000004
 67       0.000000000001
 68      -0.000000000001
 69      -0.000000000001
 70      -0.000000000002
 71      -0.000000000003
 72      -0.000000000000
 73       0.000000000001
 74      -0.000000000001
 75       0.000000000000
 76       0.000000000001
 77      -0.000000000001
 78       0.000000000000
 79       0.000000000001
 80       0.000000000011
 81       0.000000000000
 82       0.000000000001
 83      -0.000000000000
 84      -0.000000000001
 85      -0.000000000010
 86      -0.000000000000
 87      -0.000000000001
 88      -0.000000000000
 89       0.000000000002
 90       0.000000000005
 91      -0.000000000001
 92       0.000000000001
 93       0.000000000001
 94      -0.000000000007
 95      -0.000000000003
 96       0.000000000001
 97      -0.000000000000
 98      -0.000000000000
 99       0.000000000005
100       0.000000000002
101      -0.000000000000
102       0.000000000000
103       0.000000000000
104      -0.000000000003
105      -0.000000000001
106       0.000000000000
107      -0.000000000000
108      -0.000000000000
109       0.000000000001
110       0.000000000000
111       0.000001071972
112      -0.000001068358
113      -0.000001341039
114       0.000001904369
115       0.000000281639
116       0.000001137518
117       0.000000580675
118      -0.000000628830
119       0.000000625072
120       0.000000782483
121      -0.000001108785
122      -0.000000172870
123      -0.000000669394
124      -0.000000327400
125       0.000000353607
126      -0.000000351067
127      -0.000000438955
128       0.000000621370
129       0.000000099158
130       0.000000376961
131       0.000000180765
132      -0.000000182690
133       0.000000181505
134       0.000000227025
135      -0.000000321511
136      -0.000000050832
137      -0.000000194643
138      -0.000000094079
139       0.000000088898
140      -0.000000088330
141      -0.000000110492
142       0.000000156501
143       0.000000024684
144       0.000000094697
145       0.000000045857
146      -0.000000041060
147       0.000000040785
148       0.000000051005
149      -0.000000072223
150      -0.000000011457
151      -0.000000043753
152      -0.000000021086
153       0.000000014243
154      -0.000000014146
155      -0.000000017690
156       0.000000025049
157       0.000000003978
158       0.000000015178
159       0.000000007308
 Sym=     1a
 Ene= -7.90415998665120E+02
 Spin= Alpha
 Occup= 1.000000
  1       0.000000000000
  2       0.000000000000
  3       0.000000000000
  4       0.000000000000
  5       0.000000000000
  6       0.000000000000
  7      -0.000000000000
  8       0.000000000000
  9      -0.000000000001
 10      -0.000000000002
 11       0.000000000003
 12      -0.000000000004
 13       0.000000000006
 14      -0.000000000007
 15       0.000000000006
 16      -0.000000000005
 17       0.000000000003
 18      -0.000000000004
 19       0.000000000004
 20      -0.000000000004
 21       0.000000000003
 22       0.160434042375
 23      -0.030646997907
 24       0.095984234057
 25       0.261656135116
 26      -0.049983001721
 27       0.156543233257
 28       0.383722320343
 29      -0.073300759516
 30       0.229572804214
 31       0.195847410667
 32      -0.037411855661
 33       0.117171290011
 34       0.005581931703
 35      -0.001066291292
 36       0.003339549649
 37       0.003681791770
 38      -0.000703316274
 39       0.002202736730
 40      -0.002518992190
 41       0.000481191844
 42      -0.001507058797
 43       0.001547397643
 44      -0.000295592491
 45       0.000925774711
 46      -0.000928569336
 47       0.000177380480
 48      -0.000555543057
 49       0.000549358397
 50      -0.000104941484
 51       0.000328669313
 52      -0.000307141311
 53       0.000058671836
 54      -0.000183756041
 55       0.000148471727
 56      -0.000028361893
 57       0.000088827432
 58      -0.000046476460
 59       0.000008878192
 60      -0.000027805859
 61      -0.000000000000
 62       0.000000000001
 63      -0.000000000003
 64       0.000000000002
 65      -0.000000000003
 66       0.000000000000
 67       0.000000000000
 68       0.000000000003
 69      -0.000000000001
 70       0.000000000002
 71       0.000000000001
 72      -0.000000000000
 73      -0.000000000002
 74       0.000000000001
 75      -0.000000000000
 76      -0.000000000001
 77       0.000000000001
 78       0.000000000001
 79      -0.000000000001
 80      -0.000000000006
 81       0.000000000001
 82      -0.000000000001
 83      -0.000000000000
 84       0.000000000001
 85       0.000000000006
 86      -0.000000000000
 87       0.000000000001
 88       0.000000000000
 89      -0.000000000001
 90      -0.000000000003
 91       0.000000000001
 92      -0.000000000000
 93      -0.000000000000
 94       0.000000000003
 95       0.000000000002
 96      -0.000000000000
 97       0.000000000000
 98       0.000000000000
 99      -0.000000000003
100      -0.000000000001
101       0.000000000000
102      -0.000000000000
103      -0.000000000000
104       0.000000000001
105       0.000000000000
106      -0.000000000000
107       0.000000000000
108       0.000000000000
109      -0.000000000000
110      -0.000000000000
111      -0.000001687692
112      -0.000000290189
113      -0.000000757328
114       0.000000699303
115      -0.000000649767
116      -0.000000018575
117      -0.000001090019
118       0.000000997355
119       0.000000171768
120       0.000000445928
121      -0.000000403245
122       0.000000389234
123      -0.000000004602
124       0.000000636234
125      -0.000000562677
126      -0.000000096970
127      -0.000000251161
128       0.000000224964
129      -0.000000220910
130       0.000000006531
131      -0.000000356948
132       0.000000290343
133       0.000000050030
134       0.000000129696
135      -0.000000116634
136       0.000000113717
137      -0.000000002545
138       0.000000184601
139      -0.000000141254
140      -0.000000024341
141      -0.000000063107
142       0.000000056806
143      -0.000000055293
144       0.000000001138
145      -0.000000089855
146       0.000000065290
147       0.000000011253
148       0.000000029157
149      -0.000000026185
150       0.000000025595
151      -0.000000000637
152       0.000000041475
153      -0.000000022651
154      -0.000000003905
155      -0.000000010115
156       0.000000009080
157      -0.000000008882
158       0.000000000228
159      -0.000000014386
 Sym=     1a
 Ene= -7.90412333314381E+02
 Spin= Alpha
 Occup= 1.000000
  1      -0.000000000000
  2       0.000000000000
  3      -0.000000000000
  4       0.000000000000
  5      -0.000000000000
  6       0.000000000001
  7      -0.000000000002
  8       0.000000000006
  9      -0.000000000009
 10       0.000000000005
 11       0.000000000000
 12      -0.000000000004
 13       0.000000000014
 14      -0.000000000018
 15       0.000000000017
 16      -0.000000000017
 17       0.000000000018
 18      -0.000000000021
 19       0.000000000018
 20      -0.000000000014
 21       0.000000000009
 22      -0.081089378536
 23       0.067850560541
 24       0.157201991897
 25      -0.132250886129
 26       0.110659335466
 27       0.256385029773
 28      -0.193947652723
 29       0.162283361880
 30       0.375991996412
 31      -0.098986320265
 32       0.082825611947
 33       0.191897471735
 34      -0.002820190891
 35       0.002359760278
 36       0.005467295949
 37      -0.001861140078
 38       0.001557286701
 39       0.003608054854
 40       0.001273298403
 41      -0.001065417200
 42      -0.002468449630
 43      -0.000782157421
 44       0.000654460949
 45       0.001516310898
 46       0.000469365231
 47      -0.000392735835
 48      -0.000909923769
 49      -0.000277697213
 50       0.000232359840
 51       0.000538351116
 52       0.000155256033
 53      -0.000129908644
 54      -0.000300983429
 55      -0.000075050980
 56       0.000062798002
 57       0.000145495786
 58       0.000023493436
 59      -0.000019657844
 60      -0.000045544980
 61       0.000000000002
 62      -0.000000000000
 63      -0.000000000005
 64       0.000000000000
 65      -0.000000000009
 66      -0.000000000000
 67       0.000000000001
 68       0.000000000005
 69      -0.000000000001
 70       0.000000000003
 71       0.000000000000
 72      -0.000000000001
 73      -0.000000000004
 74       0.000000000000
 75       0.000000000001
 76      -0.000000000001
 77       0.000000000001
 78       0.000000000002
 79      -0.000000000000
 80      -0.000000000019
 81       0.000000000003
 82      -0.000000000001
 83      -0.000000000001
 84       0.000000000001
 85       0.000000000018
 86      -0.000000000003
 87      -0.000000000000
 88      -0.000000000000
 89      -0.000000000003
 90      -0.000000000011
 91       0.000000000003
 92       0.000000000000
 93      -0.000000000000
 94       0.000000000010
 95       0.000000000006
 96      -0.000000000002
 97      -0.000000000000
 98       0.000000000000
 99      -0.000000000008
100      -0.000000000003
101       0.000000000001
102       0.000000000000
103      -0.000000000000
104       0.000000000003
105       0.000000000002
106      -0.000000000000
107      -0.000000000000
108       0.000000000000
109      -0.000000000001
110      -0.000000000001
111      -0.000000611156
112       0.000001631921
113      -0.000001667306
114      -0.000000396205
115       0.000001337519
116       0.000000076435
117       0.000000601890
118       0.000000364710
119      -0.000000959884
120       0.000000984544
121       0.000000235269
122      -0.000000798855
123      -0.000000046189
124      -0.000000356294
125      -0.000000206608
126       0.000000540269
127      -0.000000555136
128      -0.000000132986
129       0.000000452706
130       0.000000026309
131       0.000000201130
132       0.000000106444
133      -0.000000279143
134       0.000000286567
135       0.000000068600
136      -0.000000233192
137      -0.000000013507
138      -0.000000103758
139      -0.000000051792
140       0.000000135899
141      -0.000000139491
142      -0.000000033383
143       0.000000113465
144       0.000000006572
145       0.000000050498
146       0.000000023958
147      -0.000000062763
148       0.000000064450
149       0.000000015433
150      -0.000000052486
151      -0.000000003044
152      -0.000000023338
153      -0.000000008314
154       0.000000021773
155      -0.000000022360
156      -0.000000005354
157       0.000000018214
158       0.000000001057
159       0.000000008097
 Sym=     1a
 Ene= -2.52302093381558E+02
 Spin= Alpha
 Occup= 1.000000
  1      -0.021580433341
  2      -0.017172354802
  3      -0.027664390130
  4      -0.047595824300
  5      -0.072293625756
  6      -0.089440426849
  7      -0.004074339386
  8       0.333644748804
  9       0.670763396313
 10      -0.311353117759
 11      -0.949418207640
 12      -0.095522626850
 13      -0.024267830204
 14       0.018280394518
 15      -0.012649280224
 16       0.008562311272
 17      -0.005604182160
 18       0.003491022954
 19      -0.001979938623
 20       0.000908396988
 21      -0.000244914751
 22       0.000000000002
 23       0.000000000008
 24       0.000000000001
 25       0.000000000003
 26       0.000000000014
 27       0.000000000002
 28       0.000000000005
 29       0.000000000019
 30       0.000000000002
 31      -0.000000000003
 32      -0.000000000003
 33      -0.000000000001
 34      -0.000000000009
 35      -0.000000000081
 36      -0.000000000009
 37      -0.000000000005
 38       0.000000000047
 39       0.000000000007
 40       0.000000000002
 41      -0.000000000035
 42      -0.000000000004
 43      -0.000000000004
 44       0.000000000019
 45       0.000000000002
 46       0.000000000003
 47      -0.000000000010
 48      -0.000000000001
 49      -0.000000000002
 50       0.000000000006
 51       0.000000000001
 52       0.000000000001
 53      -0.000000000003
 54      -0.000000000000
 55      -0.000000000001
 56       0.000000000002
 57       0.000000000000
 58       0.000000000000
 59      -0.000000000001
 60      -0.000000000000
 61       0.000024668771
 62      -0.000021272340
 63       0.000023465168
 64       0.000009394300
 65      -0.000015771276
 66       0.000053712819
 67      -0.000046324268
 68       0.000051099822
 69       0.000020445473
 70      -0.000034343573
 71       0.000027979313
 72      -0.000024105937
 73       0.000026620496
 74       0.000010671257
 75      -0.000017904700
 76      -0.000002730274
 77       0.000002347200
 78      -0.000002601055
 79      -0.000001045457
 80       0.000001753218
 81       0.000001634915
 82      -0.000001407948
 83       0.000001557086
 84       0.000000623555
 85      -0.000001048073
 86      -0.000000876710
 87       0.000000753853
 88      -0.000000835103
 89      -0.000000335298
 90       0.000000562686
 91       0.000000555638
 92      -0.000000478299
 93       0.000000529126
 94       0.000000212023
 95      -0.000000356194
 96      -0.000000280073
 97       0.000000240700
 98      -0.000000266803
 99      -0.000000106991
100       0.000000179743
101       0.000000133596
102      -0.000000114731
103       0.000000127260
104       0.000000050977
105      -0.000000085717
106      -0.000000045104
107       0.000000038713
108      -0.000000042961
109      -0.000000017195
110       0.000000028931
111      -0.000000000001
112      -0.000000000000
113      -0.000000000005
114      -0.000000000007
115      -0.000000000001
116       0.000000000002
117      -0.000000000000
118       0.000000000000
119       0.000000000000
120       0.000000000000
121       0.000000000005
122      -0.000000000000
123      -0.000000000000
124      -0.000000000020
125      -0.000000000000
126      -0.000000000000
127       0.000000000001
128      -0.000000000002
129       0.000000000001
130       0.000000000000
131       0.000000000002
132       0.000000000000
133      -0.000000000000
134      -0.000000000001
135       0.000000000001
136      -0.000000000000
137       0.000000000000
138       0.000000000002
139      -0.000000000001
140       0.000000000001
141       0.000000000000
142       0.000000000001
143      -0.000000000001
144      -0.000000000002
145      -0.000000000005
146       0.000000000001
147      -0.000000000002
148       0.000000000001
149      -0.000000000002
150      -0.000000000000
151       0.000000000000
152       0.000000000023
153      -0.000000000001
154       0.000000000005
155      -0.000000000001
156       0.000000000003
157       0.000000000001
158       0.000000000000
159      -0.000000000010
 Sym=     1a
 Ene= -2.04361944690570E+02
 Spin= Alpha
 Occup= 1.000000
  1      -0.000000000001
  2      -0.000000000001
  3      -0.000000000002
  4      -0.000000000003
  5      -0.000000000004
  6      -0.000000000005
  7       0.000000000001
  8       0.000000000017
  9       0.000000000045
 10      -0.000000000028
 11      -0.000000000052
 12      -0.000000000036
 13       0.000000000102
 14      -0.000000000131
 15       0.000000000131
 16      -0.000000000131
 17       0.000000000105
 18      -0.000000000030
 19      -0.000000000034
 20       0.000000000073
 21      -0.000000000049
 22      -0.033865120620
 23      -0.098626274642
 24       0.025103807367
 25      -0.059262860064
 26      -0.172592772848
 27       0.043930846794
 28      -0.087072340571
 29      -0.253583054063
 30       0.064545680511
 31       0.046692288038
 32       0.135983177686
 33      -0.034612431981
 34       0.234668853848
 35       0.683432219867
 36      -0.173957204956
 37       0.073546697950
 38       0.214191957379
 39      -0.054519284567
 40      -0.002177191454
 41      -0.006340677860
 42       0.001613926981
 43       0.001443402803
 44       0.004203654036
 45      -0.001069977513
 46      -0.000804259658
 47      -0.002342262743
 48       0.000596188284
 49       0.000442387703
 50       0.001288376203
 51      -0.000327936777
 52      -0.000242459595
 53      -0.000706120089
 54       0.000179732502
 55       0.000116438888
 56       0.000339107400
 57      -0.000086314813
 58      -0.000036368027
 59      -0.000105915372
 60       0.000026959203
 61       0.000000000011
 62      -0.000000000002
 63       0.000000000000
 64      -0.000000000003