[Molden Format]
[Title]
 Molden file created by orca_2mkl for BaseName=/data01/Nikolayandreadi/heavy/cations/U_5+

[Atoms] AU
U    1  92          0.0415890928         1.5388172189        -3.6027401976 
[GTO]
  1 0
s   9 1.0 
 58915269.2040619999     15878.5363952950
 26779667.8200279996     -5784.7557541551
 12172576.2818310000      9027.3946318877
  5532989.2190140001       325.6868040056
  2514995.0995519999      4208.1243710139
  1143179.5907050001      1939.1491289669
   519627.0866840000      2669.4311026285
   236194.1303110000      2005.5172738201
   107360.9683230000      2058.9530636601
s   1 1.0 
    48800.4401470000      2340.0648682401
s   1 1.0 
    22182.0182490000      1295.4208592531
s   1 1.0 
    10082.7355680000       717.1233692609
s   1 1.0 
     4583.0616220000       396.9875296292
s   1 1.0 
     2083.2098280000       219.7656713216
s   1 1.0 
      946.9135580000       121.6586080998
s   1 1.0 
      430.4152540000        67.3481752053
s   1 1.0 
      195.6432970000        37.2828258248
s   1 1.0 
       88.9287710000        20.6391501245
s   1 1.0 
       40.4221690000        11.4254891526
s   1 1.0 
       18.3737130000         6.3249600754
s   1 1.0 
        8.3516880000         3.5013924304
s   1 1.0 
        3.7962220000         1.9383124866
s   1 1.0 
        1.7255550000         1.0730172334
s   1 1.0 
        0.7843430000         0.5940043302
s   1 1.0 
        0.3565200000         0.3288311987
s   1 1.0 
        0.1620540000         0.1820350044
s   1 1.0 
        0.0736610000         0.1007716339
s   1 1.0 
        0.0334820000         0.0557851540
s   1 1.0 
        0.0152190000         0.0308815919
p   8 1.0 
   839813.6669700000    124700.6825327761
   349922.3612380000     10799.0830937165
   145800.9838490000     36359.2991195727
    60750.4099370000     18163.2607860982
    25312.6708070000     17573.6487977577
    10546.9461700000     14195.6918408552
     4394.5609040000     13322.9302572221
     1831.0670430000     12107.7084625556
p   1 1.0 
      762.9446010000      5715.5278197986
p   1 1.0 
      317.8935840000      1913.3406184205
p   1 1.0 
      132.4556600000       640.5134283167
p   1 1.0 
       55.1898580000       214.4194529751
p   1 1.0 
       22.9957740000        71.7794502225
p   1 1.0 
        9.5815730000        24.0290224861
p   1 1.0 
        3.9923220000         8.0439996005
p   1 1.0 
        1.6634670000         2.6928231053
p   1 1.0 
        0.6931110000         0.9014540144
p   1 1.0 
        0.2887960000         0.3017720791
p   1 1.0 
        0.1203320000         0.1010221266
p   1 1.0 
        0.0501380000         0.0338180721
d   7 1.0 
    41049.8202270000     53262.0337640016
    16419.9280910000     26338.4031025142
     6567.9712360000     29332.4246479962
     2627.1884950000     27101.6066256769
     1050.8753980000     28990.3214062957
      420.3501590000     26289.6282344813
      168.1400640000     17820.8132210096
d   1 1.0 
       67.2560250000      4502.9764563892
d   1 1.0 
       26.9024100000       905.9509006942
d   1 1.0 
       10.7609640000       182.2676717095
d   1 1.0 
        4.3043860000        36.6703201328
d   1 1.0 
        1.7217540000         7.3776748265
d   1 1.0 
        0.6887020000         1.4843111023
d   1 1.0 
        0.2754810000         0.2986279634
d   1 1.0 
        0.1101920000         0.0600803838
d   1 1.0 
        0.0440770000         0.0120876293
f   6 1.0 
     4391.9602590000     58042.2322349557
     1689.2154840000     50234.6786083959
      649.6982630000     55932.1636963999
      249.8839470000     54589.9728655915
       96.1092110000     39385.8448814677
       36.9650810000     15829.5183325708
f   1 1.0 
       14.2173390000      2237.9031973610
f   1 1.0 
        5.4682070000       260.7061095750
f   1 1.0 
        2.1031570000        30.3711607432
f   1 1.0 
        0.8089060000         3.5381049160
f   1 1.0 
        0.3111180000         0.4121749941
f   1 1.0 
        0.1196610000         0.0480168308

[5D]
[7F]
[9G]
[MO]
 Sym=     1a
 Ene= -4.26240137852589E+03
 Spin= Alpha
 Occup= 1.000000
  1      -0.084983924336
  2      -0.065169424946
  3      -0.111711611505
  4      -0.177550023928
  5      -0.264431107462
  6      -0.303181553526
  7      -0.192924725445
  8      -0.032221142011
  9      -0.000868941013
 10       0.000612083105
 11      -0.000446990328
 12       0.000331502654
 13      -0.000235773346
 14       0.000158604050
 15      -0.000104849872
 16       0.000068940041
 17      -0.000044469093
 18       0.000027504689
 19      -0.000015540876
 20       0.000007117212
 21      -0.000001917265
 22       0.000000000000
 23      -0.000000000000
 24       0.000000000000
 25      -0.000000000000
 26       0.000000000000
 27      -0.000000000000
 28       0.000000000000
 29      -0.000000000000
 30       0.000000000000
 31      -0.000000000000
 32       0.000000000000
 33      -0.000000000000
 34       0.000000000000
 35      -0.000000000000
 36       0.000000000000
 37      -0.000000000000
 38       0.000000000000
 39      -0.000000000000
 40      -0.000000000000
 41      -0.000000000001
 42       0.000000000000
 43       0.000000000000
 44       0.000000000002
 45       0.000000000000
 46      -0.000000000000
 47      -0.000000000002
 48      -0.000000000000
 49       0.000000000000
 50       0.000000000002
 51       0.000000000000
 52      -0.000000000000
 53      -0.000000000001
 54      -0.000000000000
 55       0.000000000000
 56       0.000000000000
 57       0.000000000000
 58      -0.000000000000
 59      -0.000000000000
 60      -0.000000000000
 61       0.000000030638
 62      -0.000000015092
 63       0.000000024436
 64       0.000000026801
 65       0.000000053644
 66      -0.000000024418
 67       0.000000012029
 68      -0.000000019476
 69      -0.000000021362
 70      -0.000000042753
 71       0.000000016197
 72      -0.000000007979
 73       0.000000012919
 74       0.000000014170
 75       0.000000028359
 76      -0.000000009348
 77       0.000000004605
 78      -0.000000007456
 79      -0.000000008178
 80      -0.000000016367
 81       0.000000004978
 82      -0.000000002452
 83       0.000000003971
 84       0.000000004356
 85       0.000000008716
 86      -0.000000002838
 87       0.000000001398
 88      -0.000000002264
 89      -0.000000002484
 90      -0.000000004970
 91       0.000000001668
 92      -0.000000000822
 93       0.000000001330
 94       0.000000001460
 95       0.000000002921
 96      -0.000000000865
 97       0.000000000426
 98      -0.000000000690
 99      -0.000000000757
100      -0.000000001514
101       0.000000000415
102      -0.000000000205
103       0.000000000331
104       0.000000000363
105       0.000000000726
106      -0.000000000140
107       0.000000000069
108      -0.000000000112
109      -0.000000000122
110      -0.000000000245
111       0.000000000000
112      -0.000000000000
113       0.000000000000
114      -0.000000000000
115       0.000000000000
116      -0.000000000000
117       0.000000000000
118      -0.000000000000
119       0.000000000000
120      -0.000000000000
121       0.000000000000
122      -0.000000000000
123       0.000000000000
124      -0.000000000000
125       0.000000000000
126      -0.000000000000
127       0.000000000000
128      -0.000000000000
129       0.000000000000
130      -0.000000000000
131       0.000000000000
132      -0.000000000000
133       0.000000000000
134      -0.000000000000
135       0.000000000000
136      -0.000000000000
137       0.000000000000
138      -0.000000000000
139       0.000000000000
140       0.000000000000
141      -0.000000000000
142       0.000000000000
143       0.000000000000
144      -0.000000000000
145       0.000000000000
146      -0.000000000000
147      -0.000000000000
148       0.000000000000
149      -0.000000000000
150       0.000000000000
151       0.000000000000
152       0.000000000000
153       0.000000000000
154       0.000000000000
155      -0.000000000000
156       0.000000000000
157      -0.000000000000
158       0.000000000000
159      -0.000000000000
 Sym=     1a
 Ene= -8.06361591457363E+02
 Spin= Alpha
 Occup= 1.000000
  1       0.035876964696
  2       0.029713757413
  3       0.049764683341
  4       0.086682825095
  5       0.138726252549
  6       0.177776750027
  7       0.072232120742
  8      -0.369138892843
  9      -0.610967111394
 10      -0.169953436291
 11       0.002090175833
 12      -0.001800747889
 13       0.000965264508
 14      -0.000499009342
 15       0.000276966204
 16      -0.000172653320
 17       0.000109281738
 18      -0.000066605302
 19       0.000037434349
 20      -0.000017102534
 21       0.000004602204
 22       0.000000000001
 23       0.000000000001
 24      -0.000000000001
 25       0.000000000001
 26       0.000000000001
 27      -0.000000000002
 28       0.000000000003
 29       0.000000000002
 30      -0.000000000003
 31      -0.000000000001
 32       0.000000000002
 33      -0.000000000003
 34       0.000000000001
 35      -0.000000000001
 36       0.000000000001
 37      -0.000000000000
 38       0.000000000004
 39      -0.000000000001
 40      -0.000000000001
 41      -0.000000000012
 42       0.000000000000
 43       0.000000000003
 44       0.000000000043
 45       0.000000000001
 46      -0.000000000005
 47      -0.000000000052
 48      -0.000000000002
 49       0.000000000004
 50       0.000000000037
 51       0.000000000001
 52      -0.000000000002
 53      -0.000000000021
 54      -0.000000000001
 55       0.000000000001
 56       0.000000000010
 57       0.000000000000
 58      -0.000000000000
 59      -0.000000000003
 60      -0.000000000000
 61       0.000002135822
 62      -0.000001052097
 63       0.000001703453
 64       0.000001868347
 65       0.000003739579
 66       0.000000350167
 67      -0.000000172465
 68       0.000000279287
 69       0.000000306306
 70       0.000000613125
 71      -0.000000232150
 72       0.000000114339
 73      -0.000000185147
 74      -0.000000203044
 75      -0.000000406482
 76       0.000000084861
 77      -0.000000041792
 78       0.000000067684
 79       0.000000074213
 80       0.000000148597
 81      -0.000000028179
 82       0.000000013873
 83      -0.000000022478
 84      -0.000000024624
 85      -0.000000049347
 86       0.000000021320
 87      -0.000000010497
 88       0.000000017003
 89       0.000000018625
 90       0.000000037330
 91      -0.000000013809
 92       0.000000006798
 93      -0.000000011016
 94      -0.000000012067
 95      -0.000000024182
 96       0.000000006859
 97      -0.000000003375
 98       0.000000005472
 99       0.000000005993
100       0.000000012012
101      -0.000000003272
102       0.000000001611
103      -0.000000002609
104      -0.000000002859
105      -0.000000005729
106       0.000000001103
107      -0.000000000544
108       0.000000000878
109       0.000000000963
110       0.000000001929
111       0.000000000006
112      -0.000000000000
113       0.000000000001
114      -0.000000000001
115       0.000000000006
116      -0.000000000010
117      -0.000000000000
118      -0.000000000005
119      -0.000000000000
120      -0.000000000001
121       0.000000000001
122      -0.000000000004
123       0.000000000008
124      -0.000000000000
125       0.000000000003
126       0.000000000000
127       0.000000000001
128      -0.000000000000
129       0.000000000003
130      -0.000000000005
131      -0.000000000001
132      -0.000000000002
133      -0.000000000000
134      -0.000000000000
135       0.000000000000
136      -0.000000000001
137       0.000000000003
138       0.000000000001
139       0.000000000001
140       0.000000000000
141       0.000000000000
142       0.000000000000
143       0.000000000000
144      -0.000000000001
145      -0.000000000001
146      -0.000000000001
147      -0.000000000000
148       0.000000000000
149       0.000000000000
150       0.000000000000
151       0.000000000001
152       0.000000000003
153      -0.000000000000
154       0.000000000000
155      -0.000000000000
156       0.000000000000
157      -0.000000000000
158       0.000000000000
159      -0.000000000001
 Sym=     1a
 Ene= -6.77019644471254E+02
 Spin= Alpha
 Occup= 1.000000
  1      -0.000000000000
  2      -0.000000000000
  3      -0.000000000000
  4      -0.000000000000
  5      -0.000000000001
  6      -0.000000000000
  7      -0.000000000001
  8       0.000000000003
  9       0.000000000001
 10       0.000000000004
 11      -0.000000000008
 12       0.000000000012
 13      -0.000000000015
 14       0.000000000023
 15      -0.000000000024
 16       0.000000000012
 17       0.000000000005
 18      -0.000000000012
 19       0.000000000009
 20      -0.000000000003
 21       0.000000000001
 22      -0.091096547865
 23       0.147354595835
 24      -0.041493448698
 25      -0.155072522781
 26       0.250839899591
 27      -0.070633782722
 28      -0.233685999682
 29       0.378002315577
 30      -0.106441333572
 31      -0.122918801251
 32       0.198829162088
 33      -0.055988125728
 34      -0.004124131619
 35       0.006671051357
 36      -0.001878495382
 37      -0.002237358021
 38       0.003619072224
 39      -0.001019091305
 40       0.001548328319
 41      -0.002504521834
 42       0.000705246059
 43      -0.000950771595
 44       0.001537934944
 45      -0.000433065723
 46       0.000570834068
 47      -0.000923361265
 48       0.000260008471
 49      -0.000338123101
 50       0.000546936128
 51      -0.000154011254
 52       0.000189033746
 53      -0.000305774391
 54       0.000086102737
 55      -0.000091372544
 56       0.000147801038
 57      -0.000041619162
 58       0.000028600289
 59      -0.000046262829
 60       0.000013027109
 61       0.000000000001
 62       0.000000000000
 63       0.000000000001
 64       0.000000000000
 65       0.000000000001
 66      -0.000000000002
 67      -0.000000000002
 68      -0.000000000001
 69      -0.000000000000
 70      -0.000000000001
 71       0.000000000007
 72       0.000000000002
 73      -0.000000000000
 74      -0.000000000001
 75       0.000000000001
 76      -0.000000000009
 77      -0.000000000001
 78       0.000000000003
 79      -0.000000000000
 80      -0.000000000000
 81       0.000000000006
 82       0.000000000001
 83      -0.000000000003
 84       0.000000000000
 85       0.000000000000
 86      -0.000000000003
 87      -0.000000000000
 88       0.000000000001
 89      -0.000000000000
 90      -0.000000000000
 91       0.000000000002
 92       0.000000000000
 93      -0.000000000001
 94      -0.000000000000
 95       0.000000000000
 96      -0.000000000001
 97      -0.000000000000
 98       0.000000000000
 99       0.000000000000
100      -0.000000000000
101       0.000000000000
102       0.000000000000
103      -0.000000000000
104      -0.000000000000
105       0.000000000000
106      -0.000000000000
107      -0.000000000000
108       0.000000000000
109       0.000000000000
110      -0.000000000000
111       0.000000817267
112       0.000000586594
113      -0.000000950439
114       0.000000491643
115       0.000000982216
116      -0.000001863936
117      -0.000000169265
118      -0.000000515413
119      -0.000000370138
120       0.000000598719
121      -0.000000309528
122      -0.000000618953
123       0.000001174807
124       0.000000106479
125       0.000000294559
126       0.000000211575
127      -0.000000342028
128       0.000000176785
129       0.000000353632
130      -0.000000671259
131      -0.000000060796
132      -0.000000152993
133      -0.000000109865
134       0.000000177741
135      -0.000000091894
136      -0.000000183741
137       0.000000348744
138       0.000000031614
139       0.000000075171
140       0.000000053986
141      -0.000000087314
142       0.000000045138
143       0.000000090264
144      -0.000000171333
145      -0.000000015527
146      -0.000000034687
147      -0.000000024912
148       0.000000040292
149      -0.000000020829
150      -0.000000041652
151       0.000000079061
152       0.000000007165
153       0.000000012040
154       0.000000008647
155      -0.000000013986
156       0.000000007230
157       0.000000014458
158      -0.000000027442
159      -0.000000002487
 Sym=     1a
 Ene= -6.77015719019661E+02
 Spin= Alpha
 Occup= 1.000000
  1       0.000000000000
  2       0.000000000000
  3       0.000000000000
  4       0.000000000001
  5       0.000000000002
  6       0.000000000001
  7       0.000000000002
  8      -0.000000000005
  9      -0.000000000005
 10      -0.000000000004
 11       0.000000000007
 12      -0.000000000006
 13      -0.000000000004
 14       0.000000000028
 15      -0.000000000037
 16       0.000000000016
 17       0.000000000018
 18      -0.000000000034
 19       0.000000000027
 20      -0.000000000011
 21       0.000000000003
 22      -0.085468055658
 23      -0.008896891398
 24       0.156045043008
 25      -0.145491328236
 26      -0.015145080073
 27       0.265633755173
 28      -0.219247345131
 29      -0.022822793887
 30       0.400295304911
 31      -0.115320932405
 32      -0.012004459499
 33       0.210549540642
 34      -0.003868861979
 35      -0.000402733456
 36       0.007063653555
 37      -0.002099894201
 38      -0.000218590794
 39       0.003833924587
 40       0.001452808928
 41       0.000151231742
 42      -0.002652495478
 43      -0.000892004981
 44      -0.000092854239
 45       0.001628596256
 46       0.000535628923
 47       0.000055756879
 48      -0.000977935412
 49      -0.000317268092
 50      -0.000033026368
 51       0.000579258680
 52       0.000177373706
 53       0.000018463908
 54      -0.000323843658
 55      -0.000085736862
 56      -0.000008924871
 57       0.000156535823
 58       0.000026836331
 59       0.000002793556
 60      -0.000048996978
 61       0.000000000001
 62      -0.000000000000
 63      -0.000000000001
 64       0.000000000000
 65      -0.000000000001
 66      -0.000000000000
 67       0.000000000002
 68       0.000000000000
 69       0.000000000000
 70       0.000000000000
 71       0.000000000004
 72      -0.000000000001
 73      -0.000000000001
 74      -0.000000000000
 75      -0.000000000000
 76      -0.000000000006
 77       0.000000000001
 78       0.000000000002
 79      -0.000000000000
 80       0.000000000000
 81       0.000000000005
 82      -0.000000000001
 83      -0.000000000001
 84       0.000000000000
 85      -0.000000000001
 86      -0.000000000003
 87       0.000000000001
 88       0.000000000001
 89       0.000000000000
 90       0.000000000000
 91       0.000000000002
 92      -0.000000000000
 93      -0.000000000001
 94      -0.000000000001
 95      -0.000000000000
 96      -0.000000000002
 97       0.000000000000
 98       0.000000000001
 99       0.000000000002
100       0.000000000001
101       0.000000000001
102      -0.000000000000
103      -0.000000000001
104      -0.000000000001
105      -0.000000000001
106      -0.000000000000
107       0.000000000000
108       0.000000000000
109       0.000000000000
110       0.000000000000
111      -0.000000602888
112       0.000000537676
113      -0.000000636990
114      -0.000000613434
115      -0.000000693914
116      -0.000000239802
117      -0.000000638543
118       0.000000501588
119      -0.000000446715
120       0.000000529934
121       0.000000511039
122       0.000000576494
123       0.000000199506
124       0.000000530711
125      -0.000000311615
126       0.000000277429
127      -0.000000329220
128      -0.000000317594
129      -0.000000358022
130      -0.000000123943
131      -0.000000329623
132       0.000000145411
133      -0.000000129517
134       0.000000153628
135       0.000000148135
136       0.000000167143
137       0.000000057836
138       0.000000153865
139      -0.000000074321
140       0.000000066187
141      -0.000000078521
142      -0.000000075725
143      -0.000000085415
144      -0.000000029562
145      -0.000000078633
146       0.000000034155
147      -0.000000030419
148       0.000000036085
149       0.000000034802
150       0.000000039255
151       0.000000013586
152       0.000000036138
153      -0.000000011857
154       0.000000010560
155      -0.000000012527
156      -0.000000012081
157      -0.000000013627
158      -0.000000004716
159      -0.000000012545
 Sym=     1a
 Ene= -6.77015718019187E+02
 Spin= Alpha
 Occup= 1.000000
  1       0.000000000000
  2       0.000000000000
  3       0.000000000000
  4       0.000000000000
  5       0.000000000000
  6       0.000000000001
  7      -0.000000000000
  8      -0.000000000001
  9      -0.000000000001
 10      -0.000000000000
 11      -0.000000000001
 12       0.000000000003
 13      -0.000000000010
 14       0.000000000025
 15      -0.000000000029
 16       0.000000000014
 17       0.000000000007
 18      -0.000000000016
 19       0.000000000012
 20      -0.000000000004
 21       0.000000000001
 22      -0.127006069460
 23      -0.099705758453
 24      -0.075247716247
 25      -0.216201030906
 26      -0.169728012658
 27      -0.128093357233
 28      -0.325802936872
 29      -0.255770681390
 30      -0.193029569773
 31      -0.171367631231
 32      -0.134531678054
 33      -0.101530761040
 34      -0.005749153130
 35      -0.004513356539
 36      -0.003406220235
 37      -0.003120456303
 38      -0.002449705461
 39      -0.001848787316
 40       0.002158883279
 41       0.001694825259
 42       0.001279080890
 43      -0.001325525022
 44      -0.001040599701
 45      -0.000785338302
 46       0.000795947993
 47       0.000624856740
 48       0.000471578006
 49      -0.000471462419
 50      -0.000370120251
 51      -0.000279328939
 52       0.000263578476
 53       0.000206921544
 54       0.000156163235
 55      -0.000127405537
 56      -0.000100019360
 57      -0.000075484392
 58       0.000039878964
 59       0.000031306869
 60       0.000023627226
 61      -0.000000000000
 62      -0.000000000001
 63       0.000000000001
 64      -0.000000000000
 65       0.000000000002
 66      -0.000000000003
 67      -0.000000000003
 68      -0.000000000001
 69      -0.000000000000
 70      -0.000000000002
 71       0.000000000009
 72       0.000000000003
 73      -0.000000000001
 74       0.000000000000
 75       0.000000000001
 76      -0.000000000012
 77      -0.000000000002
 78       0.000000000004
 79      -0.000000000002
 80      -0.000000000001
 81       0.000000000008
 82       0.000000000001
 83      -0.000000000004
 84       0.000000000001
 85       0.000000000001
 86      -0.000000000005
 87      -0.000000000001
 88       0.000000000002
 89      -0.000000000000
 90      -0.000000000000
 91       0.000000000003
 92       0.000000000000
 93      -0.000000000001
 94      -0.000000000000
 95       0.000000000000
 96      -0.000000000001
 97      -0.000000000000
 98       0.000000000000
 99       0.000000000000
100      -0.000000000000
101       0.000000000000
102       0.000000000000
103      -0.000000000000
104       0.000000000000
105       0.000000000000
106      -0.000000000000
107      -0.000000000000
108       0.000000000000
109       0.000000000000
110      -0.000000000000
111       0.000000289859
112       0.000000006044
113       0.000000472184
114      -0.000000252290
115       0.000000608441
116       0.000000256238
117      -0.000001254665
118      -0.000000241656
119      -0.000000005226
120      -0.000000391995
121       0.000000209889
122      -0.000000506235
123      -0.000000213896
124       0.000001043612
125       0.000000150210
126       0.000000003278
127       0.000000243397
128      -0.000000130395
129       0.000000314504
130       0.000000132996
131      -0.000000648313
132      -0.000000070046
133      -0.000000001511
134      -0.000000113658
135       0.000000060848
136      -0.000000146756
137      -0.000000061993
138       0.000000302549
139       0.000000035813
140       0.000000000778
141       0.000000058075
142      -0.000000031098
143       0.000000075007
144       0.000000031697
145      -0.000000154633
146      -0.000000016459
147      -0.000000000358
148      -0.000000026690
149       0.000000014292
150      -0.000000034471
151      -0.000000014567
152       0.000000071067
153       0.000000005714
154       0.000000000124
155       0.000000009265
156      -0.000000004962
157       0.000000011967
158       0.000000005057
159      -0.000000024671
 Sym=     1a
 Ene= -2.08420059987106E+02
 Spin= Alpha
 Occup= 1.000000
  1      -0.017570586003
  2      -0.014771481236
  3      -0.024513838022
  4      -0.043857450714
  5      -0.070031365094
  6      -0.094379443290
  7      -0.026317822205
  8       0.294923397288
  9       0.691875010952
 10      -0.199335466523
 11      -0.987553532375
 12      -0.139681046992
 13      -0.019472683132
 14       0.014921755433
 15      -0.010541622711
 16       0.007226302564
 17      -0.004754667728
 18       0.002965915399
 19      -0.001683036757
 20       0.000772290719
 21      -0.000208222558
 22       0.000000000002
 23      -0.000000000001
 24       0.000000000001
 25       0.000000000001
 26      -0.000000000002
 27       0.000000000003
 28       0.000000000011
 29      -0.000000000004
 30       0.000000000001
 31      -0.000000000012
 32       0.000000000003
 33       0.000000000004
 34      -0.000000000009
 35       0.000000000006
 36      -0.000000000009
 37      -0.000000000004
 38       0.000000000006
 39      -0.000000000002
 40       0.000000000001
 41      -0.000000000008
 42      -0.000000000002
 43       0.000000000000
 44       0.000000000033
 45       0.000000000011
 46      -0.000000000002
 47      -0.000000000040
 48      -0.000000000012
 49       0.000000000002
 50       0.000000000029
 51       0.000000000008
 52      -0.000000000001
 53      -0.000000000016
 54      -0.000000000004
 55       0.000000000000
 56       0.000000000008
 57       0.000000000002
 58      -0.000000000000
 59      -0.000000000002
 60      -0.000000000001
 61       0.000014418443
 62      -0.000007102463
 63       0.000011499798
 64       0.000012612983
 65       0.000025245271
 66       0.000031995196
 67      -0.000015760507
 68       0.000025518389
 69       0.000027988482
 70       0.000056019823
 71       0.000012722710
 72      -0.000006267078
 73       0.000010146970
 74       0.000011129280
 75       0.000022275747
 76      -0.000000507866
 77       0.000000250147
 78      -0.000000405036
 79      -0.000000444320
 80      -0.000000889198
 81       0.000001129307
 82      -0.000000556263
 83       0.000000900718
 84       0.000000987952
 85       0.000001977298
 86      -0.000000327412
 87       0.000000161256
 88      -0.000000261132
 89      -0.000000286430
 90      -0.000000573268
 91       0.000000255754
 92      -0.000000125953
 93       0.000000204010
 94       0.000000223755
 95       0.000000447833
 96      -0.000000124121
 97       0.000000061106
 98      -0.000000099028
 99      -0.000000108598
100      -0.000000217371
101       0.000000059147
102      -0.000000029107
103       0.000000047201
104       0.000000051754
105       0.000000103601
106      -0.000000019903
107       0.000000009796
108      -0.000000015882
109      -0.000000017414
110      -0.000000034859
111       0.000000000052
112       0.000000000019
113       0.000000000005
114      -0.000000000001
115       0.000000000039
116      -0.000000000075
117      -0.000000000000
118      -0.000000000037
119      -0.000000000014
120      -0.000000000003
121       0.000000000001
122      -0.000000000028
123       0.000000000053
124       0.000000000001
125       0.000000000023
126       0.000000000009
127       0.000000000002
128      -0.000000000000
129       0.000000000017
130      -0.000000000032
131       0.000000000001
132      -0.000000000013
133      -0.000000000006
134      -0.000000000000
135      -0.000000000000
136      -0.000000000008
137       0.000000000018
138       0.000000000001
139       0.000000000010
140       0.000000000006
141      -0.000000000002
142       0.000000000002
143      -0.000000000001
144      -0.000000000010
145      -0.000000000009
146      -0.000000000005
147      -0.000000000007
148       0.000000000003
149      -0.000000000001
150       0.000000000004
151       0.000000000003
152       0.000000000043
153      -0.000000000002
154       0.000000000004
155      -0.000000000005
156       0.000000000005
157      -0.000000000006
158       0.000000000004
159      -0.000000000020
 Sym=     1a
 Ene= -1.71808210282975E+02
 Spin= Alpha
 Occup= 1.000000
  1      -0.000000000000
  2      -0.000000000000
  3      -0.000000000000
  4      -0.000000000000
  5      -0.000000000000
  6      -0.000000000001
  7       0.000000000001
  8      -0.000000000002
  9       0.000000000016
 10      -0.000000000032
 11       0.000000000083
 12      -0.000000000151
 13       0.000000000102
 14      -0.000000000039
 15       0.000000000005
 16      -0.000000000014
 17       0.000000000042
 18      -0.000000000055
 19       0.000000000043
 20      -0.000000000019
 21       0.000000000006
 22      -0.050909503220
 23       0.082349508620
 24      -0.023188746523
 25      -0.093092044452
 26       0.150582575585
 27      -0.042402453086
 28      -0.142777421342
 29       0.230951978451
 30      -0.065033622880
 31       0.061773622620
 32      -0.099922944600
 33       0.028137239356
 34       0.379443279253
 35      -0.613774749924
 36       0.172832447242
 37       0.130643711724
 38      -0.211324895157
 39       0.059506844603
 40      -0.003897980978
 41       0.006305243478
 42      -0.001775489533
 43       0.003109482020
 44      -0.005029794075
 45       0.001416336564
 46      -0.001773802659
 47       0.002869243808
 48      -0.000807948558
 49       0.000998276207
 50      -0.001614778170
 51       0.000454704366
 52      -0.000550476299
 53       0.000890432027
 54      -0.000250736192
 55       0.000265013875
 56      -0.000428677568
 57       0.000120711045
 58      -0.000082832869
 59       0.000133987672
 60      -0.000037729503
 61      -0.000000000013
 62       0.000000000000
 63      -0.000000000008
 64       0.000000000014