[Molden Format]
[Title]
 Molden file created by orca_2mkl for BaseName=/data01/nikolayandreadi/sCC/F2

[Atoms] AU
F    1   9          2.4672169918         0.0000000000         0.0000000000 
F    2   9         -0.1768689175         0.0000000000         0.0000000000 
[GTO]
  1 0
s   6 1.0 
    35479.1004410000         1.9229128581
     5318.4728983000         2.2734773358
     1210.4810975000         3.4747482552
      342.8551814000         5.2879612972
      112.0194318100         7.1666332516
       40.7147402500         7.7556346254
s   1 1.0 
       16.0396781100         5.7122450312
s   1 1.0 
        6.5038186700         2.9025947842
s   1 1.0 
        1.5440477500         0.9872011154
s   1 1.0 
        0.6122345300        -0.4932856223
s   1 1.0 
        0.2402798000         0.2445952611
p   4 1.0 
       80.2339004800         4.2755032106
       18.5940107400         4.7314752302
        5.6867902700         4.0864798013
        1.9511006300         2.2989954518
p   1 1.0 
        0.6697021100         0.8635593126
p   1 1.0 
        0.2165130000         0.2105208234
d   1 1.0 
        3.1070000000        20.7284714039
d   1 1.0 
        0.8550000000         2.1672588463
f   1 1.0 
        1.9170000000        24.6547062912

  2 0
s   6 1.0 
    35479.1004410000         1.9229128581
     5318.4728983000         2.2734773358
     1210.4810975000         3.4747482552
      342.8551814000         5.2879612972
      112.0194318100         7.1666332516
       40.7147402500         7.7556346254
s   1 1.0 
       16.0396781100         5.7122450312
s   1 1.0 
        6.5038186700         2.9025947842
s   1 1.0 
        1.5440477500         0.9872011154
s   1 1.0 
        0.6122345300        -0.4932856223
s   1 1.0 
        0.2402798000         0.2445952611
p   4 1.0 
       80.2339004800         4.2755032106
       18.5940107400         4.7314752302
        5.6867902700         4.0864798013
        1.9511006300         2.2989954518
p   1 1.0 
        0.6697021100         0.8635593126
p   1 1.0 
        0.2165130000         0.2105208234
d   1 1.0 
        3.1070000000        20.7284714039
d   1 1.0 
        0.8550000000         2.1672588463
f   1 1.0 
        1.9170000000        24.6547062912

[5D]
[9G]
[MO]
 Sym=     1a
 Ene= -2.64535758767740E+01
 Spin= Alpha
 Occup= 2.000000
  1      -0.301788286168
  2      -0.292596840541
  3      -0.182913395172
  4      -0.016301086964
  5      -0.005125630663
  6      -0.001555925758
  7       0.000820735733
  8       0.000000000000
  9       0.000000000000
 10      -0.000309454169
 11       0.000000000000
 12       0.000000000000
 13       0.000202525899
 14       0.000000000000
 15      -0.000000000000
 16      -0.000059317617
 17       0.000000000000
 18      -0.000000000000
 19       0.000102741126
 20      -0.000000000000
 21       0.000003236457
 22       0.000000000000
 23       0.000000000000
 24      -0.000005605708
 25       0.000000000000
 26      -0.000000000000
 27      -0.000031590373
 28       0.000000000000
 29      -0.000000000000
 30      -0.000000000000
 31      -0.000040782997
 32      -0.000000000000
 33      -0.301788282823
 34      -0.292596837296
 35      -0.182913393148
 36      -0.016301086770
 37      -0.005125630583
 38      -0.001555925721
 39      -0.000820735722
 40       0.000000000000
 41       0.000000000000
 42       0.000309454152
 43      -0.000000000000
 44      -0.000000000000
 45      -0.000202525888
 46       0.000000000000
 47       0.000000000000
 48      -0.000059317616
 49      -0.000000000000
 50      -0.000000000000
 51       0.000102741125
 52      -0.000000000000
 53       0.000003236462
 54      -0.000000000000
 55      -0.000000000000
 56      -0.000005605716
 57      -0.000000000000
 58       0.000000000000
 59       0.000031590375
 60       0.000000000000
 61      -0.000000000000
 62       0.000000000000
 63       0.000040782998
 64      -0.000000000000
 Sym=     1a
 Ene= -2.64533365992537E+01
 Spin= Alpha
 Occup= 2.000000
  1      -0.301778613925
  2      -0.292726251972
  3      -0.182611364458
  4      -0.017508604987
  5      -0.007224542075
  6      -0.003387637674
  7       0.000981703000
  8      -0.000000000000
  9      -0.000000000000
 10      -0.001507448181
 11       0.000000000000
 12       0.000000000000
 13       0.000994357567
 14       0.000000000000
 15       0.000000000000
 16      -0.000022892781
 17       0.000000000000
 18       0.000000000000
 19       0.000039651460
 20      -0.000000000000
 21      -0.000387229398
 22      -0.000000000000
 23       0.000000000000
 24       0.000670700992
 25       0.000000000000
 26      -0.000000000000
 27       0.000123132365
 28      -0.000000000000
 29       0.000000000000
 30      -0.000000000000
 31       0.000158963200
 32      -0.000000000000
 33       0.301778617270
 34       0.292726255215
 35       0.182611366485
 36       0.017508605168
 37       0.007224542131
 38       0.003387637692
 39       0.000981703009
 40      -0.000000000000
 41       0.000000000000
 42      -0.001507448185
 43       0.000000000000
 44       0.000000000000
 45       0.000994357569
 46       0.000000000000
 47      -0.000000000000
 48       0.000022892781
 49       0.000000000000
 50       0.000000000000
 51      -0.000039651461
 52      -0.000000000000
 53       0.000387229398
 54      -0.000000000000
 55      -0.000000000000
 56      -0.000670700992
 57       0.000000000000
 58      -0.000000000000
 59       0.000123132365
 60       0.000000000000
 61       0.000000000000
 62       0.000000000000
 63       0.000158963199
 64       0.000000000000
 Sym=     1a
 Ene= -1.77355380546683E+00
 Spin= Alpha
 Occup= 2.000000
  1      -0.072013281146
  2      -0.111512574651
  3      -0.073130211978
  4       0.252763412807
  5      -0.363318671243
  6       0.114522678078
  7      -0.046530139615
  8       0.000000000000
  9      -0.000000000000
 10      -0.050432138604
 11       0.000000000000
 12      -0.000000000000
 13      -0.003719476671
 14       0.000000000000
 15      -0.000000000000
 16      -0.001147128652
 17       0.000000000000
 18       0.000000000000
 19       0.001986885109
 20       0.000000000000
 21      -0.005607856425
 22       0.000000000000
 23      -0.000000000000
 24       0.009713092249
 25      -0.000000000000
 26      -0.000000000000
 27       0.001901583410
 28       0.000000000000
 29      -0.000000000000
 30       0.000000000000
 31       0.002454933626
 32       0.000000000000
 33      -0.072013281145
 34      -0.111512574650
 35      -0.073130211978
 36       0.252763412806
 37      -0.363318671242
 38       0.114522678078
 39       0.046530139616
 40      -0.000000000000
 41       0.000000000000
 42       0.050432138604
 43       0.000000000000
 44       0.000000000000
 45       0.003719476671
 46      -0.000000000000
 47       0.000000000000
 48      -0.001147128652
 49      -0.000000000000
 50      -0.000000000000
 51       0.001986885109
 52       0.000000000000
 53      -0.005607856425
 54      -0.000000000000
 55       0.000000000000
 56       0.009713092249
 57      -0.000000000000
 58       0.000000000000
 59      -0.001901583410
 60       0.000000000000
 61      -0.000000000000
 62      -0.000000000000
 63      -0.002454933626
 64       0.000000000000
 Sym=     1a
 Ene= -1.49697777527609E+00
 Spin= Alpha
 Occup= 2.000000
  1       0.077567951817
  2       0.120585156285
  3       0.079642350494
  4      -0.285568225966
  5       0.390980834218
  6      -0.180436248904
  7      -0.048938988179
  8      -0.000000000000
  9      -0.000000000000
 10      -0.036368168178
 11      -0.000000000000
 12      -0.000000000000
 13      -0.003266030055
 14      -0.000000000000
 15      -0.000000000000
 16      -0.001116118382
 17      -0.000000000000
 18       0.000000000000
 19       0.001933173746
 20      -0.000000000000
 21      -0.002592280306
 22       0.000000000000
 23       0.000000000000
 24       0.004489961198
 25       0.000000000000
 26      -0.000000000000
 27       0.000599350088
 28      -0.000000000000
 29       0.000000000000
 30       0.000000000000
 31       0.000773757637
 32      -0.000000000000
 33      -0.077567951817
 34      -0.120585156285
 35      -0.079642350494
 36       0.285568225967
 37      -0.390980834218
 38       0.180436248904
 39      -0.048938988179
 40      -0.000000000000
 41       0.000000000000
 42      -0.036368168178
 43      -0.000000000000
 44       0.000000000000
 45      -0.003266030055
 46       0.000000000000
 47       0.000000000000
 48       0.001116118382
 49      -0.000000000000
 50       0.000000000000
 51      -0.001933173746
 52      -0.000000000000
 53       0.002592280306
 54       0.000000000000
 55      -0.000000000000
 56      -0.004489961197
 57       0.000000000000
 58      -0.000000000000
 59       0.000599350088
 60       0.000000000000
 61       0.000000000000
 62       0.000000000000
 63       0.000773757637
 64       0.000000000000
 Sym=     1a
 Ene= -8.12984026690530E-01
 Spin= Alpha
 Occup= 2.000000
  1       0.000000000000
  2       0.000000000000
  3       0.000000000000
  4      -0.000000000000
  5       0.000000000000
  6      -0.000000000000
  7      -0.000000000000
  8       0.188103028831
  9      -0.297116219695
 10      -0.000000000000
 11       0.161818046557
 12      -0.255598044168
 13      -0.000000000000
 14       0.078785335917
 15      -0.124444573384
 16      -0.000000000000
 17       0.002254515658
 18       0.000000000000
 19       0.000000000000
 20      -0.001427324379
 21      -0.000000000000
 22       0.012529121227
 23       0.000000000000
 24       0.000000000000
 25      -0.007932133944
 26       0.002354415565
 27       0.000000000000
 28      -0.000608522895
 29      -0.003039537424
 30       0.000000000000
 31       0.000000000000
 32      -0.002356799039
 33       0.000000000000
 34       0.000000000000
 35       0.000000000000
 36      -0.000000000000
 37      -0.000000000000
 38      -0.000000000000
 39       0.000000000000
 40       0.188103028831
 41      -0.297116219695
 42       0.000000000000
 43       0.161818046557
 44      -0.255598044168
 45       0.000000000000
 46       0.078785335918
 47      -0.124444573384
 48       0.000000000000
 49      -0.002254515658
 50      -0.000000000000
 51      -0.000000000000
 52       0.001427324379
 53      -0.000000000000
 54      -0.012529121227
 55      -0.000000000000
 56       0.000000000000
 57       0.007932133944
 58       0.002354415565
 59      -0.000000000000
 60      -0.000608522895
 61      -0.003039537424
 62      -0.000000000000
 63      -0.000000000000
 64      -0.002356799039
 Sym=     1a
 Ene= -8.12984026690483E-01
 Spin= Alpha
 Occup= 2.000000
  1      -0.000000000000
  2      -0.000000000000
  3      -0.000000000000
  4       0.000000000000
  5      -0.000000000000
  6       0.000000000000
  7       0.000000000000
  8      -0.297116219695
  9      -0.188103028831
 10       0.000000000000
 11      -0.255598044168
 12      -0.161818046557
 13       0.000000000000
 14      -0.124444573384
 15      -0.078785335918
 16       0.000000000000
 17       0.001427324379
 18      -0.000000000000
 19      -0.000000000000
 20       0.002254515658
 21       0.000000000000
 22       0.007932133944
 23       0.000000000000
 24      -0.000000000000
 25       0.012529121227
 26       0.001490570590
 27      -0.000000000000
 28       0.000961186129
 29      -0.001924318357
 30       0.000000000000
 31      -0.000000000000
 32       0.003722657872
 33      -0.000000000000
 34      -0.000000000000
 35      -0.000000000000
 36       0.000000000000
 37      -0.000000000000
 38       0.000000000000
 39      -0.000000000000
 40      -0.297116219695
 41      -0.188103028831
 42      -0.000000000000
 43      -0.255598044168
 44      -0.161818046557
 45      -0.000000000000
 46      -0.124444573384
 47      -0.078785335917
 48       0.000000000000
 49      -0.001427324379
 50      -0.000000000000
 51       0.000000000000
 52      -0.002254515658
 53       0.000000000000
 54      -0.007932133944
 55       0.000000000000
 56      -0.000000000000
 57      -0.012529121227
 58       0.001490570590
 59       0.000000000000
 60       0.000961186129
 61      -0.001924318357
 62      -0.000000000000
 63       0.000000000000
 64       0.003722657872
 Sym=     1a
 Ene= -7.55801359176312E-01
 Spin= Alpha
 Occup= 2.000000
  1      -0.016836284049
  2      -0.026142582905
  3      -0.018965892965
  4       0.080976199789
  5      -0.061223642919
  6       0.105904553888
  7       0.325758473285
  8       0.000000000000
  9      -0.000000000000
 10       0.305415961683
 11       0.000000000000
 12      -0.000000000000
 13       0.135524032557
 14       0.000000000000
 15      -0.000000000000
 16       0.002918395210
 17       0.000000000000
 18       0.000000000000
 19      -0.005054808781
 20      -0.000000000000
 21       0.012738066149
 22       0.000000000000
 23       0.000000000000
 24      -0.022062977760
 25      -0.000000000000
 26       0.000000000000
 27      -0.003328580188
 28      -0.000000000000
 29      -0.000000000000
 30       0.000000000000
 31      -0.004297178544
 32      -0.000000000000
 33      -0.016836284049
 34      -0.026142582905
 35      -0.018965892966
 36       0.080976199790
 37      -0.061223642919
 38       0.105904553888
 39      -0.325758473285
 40       0.000000000001
 41       0.000000000000
 42      -0.305415961683
 43       0.000000000000
 44       0.000000000000
 45      -0.135524032557
 46       0.000000000000
 47       0.000000000000
 48       0.002918395210
 49      -0.000000000000
 50       0.000000000000
 51      -0.005054808781
 52      -0.000000000000
 53       0.012738066149
 54      -0.000000000000
 55      -0.000000000000
 56      -0.022062977760
 57       0.000000000000
 58      -0.000000000000
 59       0.003328580188
 60      -0.000000000000
 61       0.000000000000
 62       0.000000000000
 63       0.004297178544
 64      -0.000000000000
 Sym=     1a
 Ene= -6.63673931206102E-01
 Spin= Alpha
 Occup= 2.000000
  1       0.000000000000
  2       0.000000000000
  3       0.000000000000
  4      -0.000000000000
  5       0.000000000000
  6      -0.000000000000
  7      -0.000000000000
  8       0.045789531370
  9      -0.382245799138
 10      -0.000000000000
 11       0.039090028622
 12      -0.326319112288
 13      -0.000000000000
 14       0.023378565469
 15      -0.195161605128
 16      -0.000000000000
 17       0.000147988499
 18       0.000000000000
 19       0.000000000000
 20      -0.000017727661
 21      -0.000000000000
 22      -0.001767891462
 23       0.000000000000
 24       0.000000000000
 25       0.000211777139
 26       0.000843771387
 27       0.000000000000
 28      -0.000041264126
 29      -0.001089304176
 30      -0.000000000000
 31       0.000000000000
 32      -0.000159815271
 33       0.000000000000
 34       0.000000000000
 35       0.000000000000
 36      -0.000000000000
 37       0.000000000000
 38      -0.000000000000
 39       0.000000000000
 40      -0.045789531370
 41       0.382245799138
 42       0.000000000000
 43      -0.039090028622
 44       0.326319112288
 45       0.000000000000
 46      -0.023378565469
 47       0.195161605128
 48      -0.000000000000
 49       0.000147988499
 50      -0.000000000000
 51       0.000000000000
 52      -0.000017727661
 53      -0.000000000000
 54      -0.001767891462
 55       0.000000000000
 56       0.000000000000
 57       0.000211777139
 58      -0.000843771387
 59      -0.000000000000
 60       0.000041264126
 61       0.001089304176
 62       0.000000000000
 63      -0.000000000000
 64       0.000159815271
 Sym=     1a
 Ene= -6.63673931206058E-01
 Spin= Alpha
 Occup= 2.000000
  1       0.000000000000
  2       0.000000000000
  3       0.000000000000
  4      -0.000000000000
  5      -0.000000000000
  6      -0.000000000000
  7      -0.000000000000
  8      -0.382245799138
  9      -0.045789531370
 10      -0.000000000000
 11      -0.326319112288
 12      -0.039090028621
 13      -0.000000000000
 14      -0.195161605128
 15      -0.023378565469
 16      -0.000000000000
 17       0.000017727661
 18       0.000000000000
 19       0.000000000000
 20       0.000147988499
 21      -0.000000000000
 22      -0.000211777139
 23      -0.000000000000
 24       0.000000000000
 25      -0.001767891462
 26       0.000101076052
 27       0.000000000000
 28       0.000344468226
 29      -0.000130488622
 30       0.000000000000
 31       0.000000000000
 32       0.001334119703
 33       0.000000000000
 34       0.000000000000
 35       0.000000000000
 36      -0.000000000000
 37       0.000000000000
 38       0.000000000000
 39       0.000000000000
 40       0.382245799138
 41       0.045789531370
 42       0.000000000000
 43       0.326319112288
 44       0.039090028622
 45       0.000000000000
 46       0.195161605128
 47       0.023378565469
 48      -0.000000000000
 49       0.000017727661
 50       0.000000000000
 51       0.000000000000
 52       0.000147988499
 53       0.000000000000
 54      -0.000211777139
 55      -0.000000000000
 56      -0.000000000000
 57      -0.001767891462
 58      -0.000101076052
 59      -0.000000000000
 60      -0.000344468226
 61       0.000130488622
 62      -0.000000000000
 63      -0.000000000000
 64      -0.001334119703
 Sym=     1a
 Ene= 9.74104776486588E-02
 Spin= Alpha
 Occup= 0.000000
  1       0.024878852417
  2       0.039550069389
  3       0.025767507960
  4      -0.097715640119
  5       0.147786883549
  6      -0.399020926413
  7       0.361703377998
  8       0.000000000000
  9      -0.000000000000
 10       0.316638109119
 11      -0.000000000000
 12      -0.000000000000
 13       0.581287217542
 14       0.000000000000
 15      -0.000000000000
 16      -0.002472801092
 17       0.000000000000
 18       0.000000000000
 19       0.004283017128
 20      -0.000000000000
 21      -0.003959613870
 22       0.000000000000
 23      -0.000000000000
 24       0.006858252402
 25       0.000000000000
 26       0.000000000000
 27      -0.000599402223
 28      -0.000000000000
 29      -0.000000000000
 30      -0.000000000000
 31      -0.000773824942
 32      -0.000000000000
 33      -0.024878852417
 34      -0.039550069389
 35      -0.025767507960
 36       0.097715640118
 37      -0.147786883550
 38       0.399020926413
 39       0.361703377998
 40      -0.000000000000
 41       0.000000000000
 42       0.316638109119
 43      -0.000000000000
 44       0.000000000000
 45       0.581287217541
 46       0.000000000000
 47      -0.000000000000
 48       0.002472801092
 49       0.000000000000
 50       0.000000000000
 51      -0.004283017128
 52      -0.000000000000
 53       0.003959613870
 54       0.000000000000
 55      -0.000000000000
 56      -0.006858252401
 57       0.000000000000
 58      -0.000000000000
 59      -0.000599402223
 60       0.000000000000
 61       0.000000000000
 62       0.000000000000
 63      -0.000773824942
 64      -0.000000000000
 Sym=     1a
 Ene= 6.07104989187415E-01
 Spin= Alpha
 Occup= 0.000000
  1       0.034247013527
  2       0.074920704809
  3      -0.012553659056
  4       0.132693394972
  5       1.303641348742
  6       1.297724491277
  7      -0.062172599508
  8      -0.000000000000
  9      -0.000000000000
 10      -0.140304626225
 11      -0.000000000000
 12       0.000000000000
 13       0.310519193054
 14       0.000000000000
 15       0.000000000000
 16       0.000500302200
 17       0.000000000000
 18       0.000000000000
 19      -0.000866548829
 20      -0.000000000000
 21       0.009039817098
 22      -0.000000000000
 23      -0.000000000000
 24      -0.015657422505
 25       0.000000000000
 26      -0.000000000000
 27       0.000266306208
 28      -0.000000000000
 29       0.000000000000
 30       0.000000000000
 31       0.000343799836
 32      -0.000000000000
 33       0.034247013527
 34       0.074920704809
 35      -0.012553659056
 36       0.132693394971
 37       1.303641348739
 38       1.297724491275
 39       0.062172599508
 40      -0.000000000000
 41       0.000000000000
 42       0.140304626223
 43      -0.000000000000
 44       0.000000000000
 45      -0.310519193051
 46       0.000000000000
 47      -0.000000000000
 48       0.000500302200
 49       0.000000000000
 50       0.000000000000
 51      -0.000866548829
 52      -0.000000000000
 53       0.009039817098
 54       0.000000000000
 55      -0.000000000000
 56      -0.015657422505
 57       0.000000000000
 58      -0.000000000000
 59      -0.000266306208
 60       0.000000000000
 61       0.000000000000
 62       0.000000000000
 63      -0.000343799836
 64       0.000000000000
 Sym=     1a
 Ene= 6.30882622600436E-01
 Spin= Alpha
 Occup= 0.000000
  1       0.012936123944
  2       0.027175856992
  3      -0.001579753869
  4       0.019761742092
  5       0.291312115880
  6      -0.546859683528
  7      -0.224439693102
  8      -0.000000000000
  9       0.000000000000
 10      -0.438271739378
 11      -0.000000000000
 12       0.000000000000
 13       1.353780885856
 14       0.000000000000
 15      -0.000000000000
 16      -0.004630570477
 17       0.000000000000
 18       0.000000000000
 19       0.008020383335
 20      -0.000000000000
 21       0.030467522472
 22       0.000000000000
 23      -0.000000000000
 24      -0.052771296902
 25      -0.000000000000
 26      -0.000000000000
 27      -0.000832924320
 28       0.000000000000
 29       0.000000000000
 30       0.000000000000
 31      -0.001075300673
 32       0.000000000000
 33      -0.012936123944
 34      -0.027175856992
 35       0.001579753869
 36      -0.019761742092
 37      -0.291312115885
 38       0.546859683523
 39      -0.224439693102
 40      -0.000000000000
 41       0.000000000000
 42      -0.438271739378
 43      -0.000000000000
 44       0.000000000000
 45       1.353780885857
 46       0.000000000000
 47      -0.000000000001
 48       0.004630570477
 49       0.000000000000
 50       0.000000000000
 51      -0.008020383335
 52      -0.000000000000
 53      -0.030467522472
 54      -0.000000000000
 55       0.000000000000
 56       0.052771296902
 57      -0.000000000000
 58      -0.000000000000
 59      -0.000832924320
 60       0.000000000000
 61       0.000000000000
 62       0.000000000000
 63      -0.001075300673
 64       0.000000000000
 Sym=     1a
 Ene= 6.54873172612436E-01
 Spin= Alpha
 Occup= 0.000000
  1       0.000000000000
  2       0.000000000000
  3       0.000000000000
  4       0.000000000000
  5       0.000000000000
  6       0.000000000000
  7      -0.000000000000
  8       0.063244486992
  9      -0.184392204039
 10      -0.000000000000
 11       0.155849536089
 12      -0.454386474215
 13       0.000000000001
 14      -0.243636235896
 15       0.710332625932
 16      -0.000000000000
 17      -0.001674856864
 18      -0.000000000000
 19       0.000000000000
 20       0.000574457384
 21       0.000000000000
 22       0.018816281599
 23       0.000000000000
 24      -0.000000000000
 25      -0.006453776520
 26       0.002118199545
 27      -0.000000000000
 28      -0.000296600148
 29      -0.002734583854
 30       0.000000000000
 31       0.000000000000
 32      -0.001148727435
 33      -0.000000000000
 34      -0.000000000000
 35       0.000000000000
 36      -0.000000000000
 37      -0.000000000000
 38       0.000000000000
 39      -0.000000000000
 40       0.063244486992
 41      -0.184392204039
 42      -0.000000000000
 43       0.155849536089
 44      -0.454386474215
 45       0.000000000000
 46      -0.243636235897
 47       0.710332625932
 48      -0.000000000000
 49       0.001674856864
 50      -0.000000000000
 51      -0.000000000000
 52      -0.000574457384
 53      -0.000000000000
 54      -0.018816281599
 55       0.000000000000
 56       0.000000000000
 57       0.006453776520
 58       0.002118199545
 59      -0.000000000000
 60      -0.000296600148
 61      -0.002734583854
 62       0.000000000000
 63      -0.000000000000
 64      -0.001148727435
 Sym=     1a
 Ene= 6.54873172612461E-01
 Spin= Alpha
 Occup= 0.000000
  1       0.000000000000
  2       0.000000000000
  3       0.000000000000
  4       0.000000000000
  5       0.000000000000
  6       0.000000000001
  7      -0.000000000000
  8       0.184392204039
  9       0.063244486992
 10      -0.000000000000
 11       0.454386474215
 12       0.155849536089
 13       0.000000000000
 14      -0.710332625932
 15      -0.243636235897
 16      -0.000000000000
 17       0.000574457384
 18       0.000000000000
 19       0.000000000000
 20       0.001674856864
 21      -0.000000000000
 22      -0.006453776520
 23       0.000000000000
 24       0.000000000000
 25      -0.018816281599
 26      -0.000726519021
 27      -0.000000000000
 28      -0.000864751343
 29       0.000937932023
 30      -0.000000000000
 31      -0.000000000000
 32      -0.003349167551
 33      -0.000000000000
 34      -0.000000000000
 35       0.000000000000
 36      -0.000000000000
 37      -0.000000000000
 38      -0.000000000000
 39       0.000000000000
 40       0.184392204039
 41       0.063244486992
 42       0.000000000000
 43       0.454386474215
 44       0.155849536089
 45      -0.000000000000
 46      -0.710332625932
 47      -0.243636235896
 48       0.000000000000
 49      -0.000574457384
 50      -0.000000000000
 51      -0.000000000000
 52      -0.001674856864
 53      -0.000000000000
 54       0.006453776520
 55       0.000000000000
 56       0.000000000000
 57       0.018816281599
 58      -0.000726519021
 59      -0.000000000000
 60      -0.000864751343
 61       0.000937932023
 62       0.000000000000
 63       0.000000000000
 64      -0.003349167551
 Sym=     1a
 Ene= 7.67223881651753E-01
 Spin= Alpha
 Occup= 0.000000
  1      -0.000000000000
  2      -0.000000000000
  3       0.000000000000
  4      -0.000000000001
  5      -0.000000000004
  6      -0.000000000001
  7      -0.000000000001
  8      -0.014115127647
  9      -0.166918269033
 10      -0.000000000003
 11      -0.039670558685
 12      -0.469123705641
 13       0.000000000005
 14       0.102133116716
 15       1.207773920289
 16      -0.000000000000
 17       0.007023690565
 18      -0.000000000000
 19       0.000000000000
 20       0.000593945105
 21      -0.000000000000
 22      -0.000260825928
 23       0.000000000000
 24       0.000000000000
 25      -0.000022056251
 26      -0.000608883294
 27      -0.000000000000
 28      -0.000021020322
 29       0.000786064953
 30      -0.000000000000
 31      -0.000000000000
 32      -0.000081411358
 33      -0.000000000000
 34      -0.000000000000
 35       0.000000000000
 36      -0.000000000001
 37      -0.000000000004
 38      -0.000000000002
 39       0.000000000001
 40       0.014115127647
 41       0.166918269033
 42       0.000000000003
 43       0.039670558685
 44       0.469123705642
 45      -0.000000000006
 46      -0.102133116716
 47      -1.207773920289
 48      -0.000000000000
 49       0.007023690565
 50       0.000000000000
 51       0.000000000000
 52       0.000593945105
 53      -0.000000000000
 54      -0.000260825928
 55       0.000000000000
 56       0.000000000000
 57      -0.000022056251
 58       0.000608883294
 59       0.000000000000
 60       0.000021020322
 61      -0.000786064953
 62       0.000000000000
 63       0.000000000000
 64       0.000081411358
 Sym=     1a
 Ene= 7.67223881651810E-01
 Spin= Alpha
 Occup= 0.000000
  1      -0.000000000000
  2      -0.000000000000
  3       0.000000000000
  4      -0.000000000000
  5      -0.000000000001
  6      -0.000000000000
  7      -0.000000000000
  8       0.166918269033
  9      -0.014115127647
 10      -0.000000000001
 11       0.469123705642
 12      -0.039670558685
 13       0.000000000001
 14      -1.207773920289
 15       0.102133116716
 16      -0.000000000000
 17       0.000593945105
 18       0.000000000000
 19       0.000000000000
 20      -0.007023690565
 21      -0.000000000000
 22      -0.000022056251
 23      -0.000000000000
 24       0.000000000000
 25       0.000260825928
 26      -0.000051489064
 27      -0.000000000000
 28       0.000248575564
 29       0.000066472096
 30       0.000000000000
 31       0.000000000000
 32       0.000962729020
 33      -0.000000000000
 34      -0.000000000000
 35       0.000000000000
 36      -0.000000000000
 37      -0.000000000001
 38      -0.000000000000
 39       0.000000000000
 40      -0.166918269033
 41       0.014115127647
 42       0.000000000001
 43      -0.469123705642
 44       0.039670558685
 45      -0.000000000001
 46       1.207773920289
 47      -0.102133116716
 48      -0.000000000000
 49       0.000593945105
 50       0.000000000000
 51       0.000000000000
 52      -0.007023690565
 53       0.000000000000
 54      -0.000022056251
 55      -0.000000000000
 56       0.000000000000
 57       0.000260825928
 58       0.000051489064
 59       0.000000000000
 60      -0.000248575564
 61      -0.000066472096
 62      -0.000000000000
 63       0.000000000000
 64      -0.000962729020
 Sym=     1a
 Ene= 7.76413172030017E-01
 Spin= Alpha
 Occup= 0.000000
  1      -0.008641110943
  2      -0.021901382749
  3       0.010876992054
  4      -0.093749625320
  5      -0.600350468606
  6      -0.243617338702
  7      -0.119218141141
  8      -0.000000000000
  9       0.000000000001
 10      -0.513737849047
 11      -0.000000000000
 12       0.000000000003
 13       0.932363740079
 14       0.000000000001
 15      -0.000000000007
 16      -0.005375823461
 17      -0.000000000000
 18       0.000000000000
 19       0.009311199367
 20       0.000000000000
 21      -0.028282641400
 22       0.000000000000
 23       0.000000000000
 24       0.048986971876
 25       0.000000000000
 26       0.000000000000
 27      -0.000247967203
 28       0.000000000000
 29      -0.000000000000
 30      -0.000000000000
 31      -0.000320124282
 32       0.000000000000
 33      -0.008641110943
 34      -0.021901382749
 35       0.010876992054
 36      -0.093749625319
 37      -0.600350468601
 38      -0.243617338692