[Molden Format]
[Title]
 Molden file created by orca_2mkl for BaseName=/data01/Nikolayandreadi/heavy/sCC/Am

[Atoms] AU
Am   1  95          0.0415890928         1.5388172189        -3.6027401976 
[GTO]
  1 0
s   9 1.0 
 62843653.3261049986     17689.9938137226
 28565296.9664120004     -6499.4966822043
 12984225.8938229997     10011.1098279634
  5901920.8608290004       268.1321452514
  2682691.3003770001      4597.7001645785
  1219405.1365350001      2040.1098732743
   554275.0620610000      2849.1377853557
   251943.2100280000      2091.1701999455
   114519.6409220000      2140.7191514154
s   1 1.0 
    52054.3822370000      2456.1396994492
s   1 1.0 
    23661.0828350000      1359.6779486971
s   1 1.0 
    10755.0376520000       752.6950216035
s   1 1.0 
     4888.6534780000       416.6794027104
s   1 1.0 
     2222.1152170000       230.6667636277
s   1 1.0 
     1010.0523720000       127.6932709570
s   1 1.0 
      459.1147140000        70.6888637489
s   1 1.0 
      208.6885070000        39.1321753804
s   1 1.0 
       94.8584120000        21.6629191925
s   1 1.0 
       43.1174600000        11.9922305466
s   1 1.0 
       19.5988450000         6.6386985846
s   1 1.0 
        8.9085660000         3.6750727756
s   1 1.0 
        4.0493480000         2.0344588892
s   1 1.0 
        1.8406130000         1.1262426144
s   1 1.0 
        0.8366420000         0.6234689638
s   1 1.0 
        0.3802920000         0.3451421375
s   1 1.0 
        0.1728600000         0.1910649274
s   1 1.0 
        0.0785730000         0.1057706306
s   1 1.0 
        0.0357150000         0.0585528560
s   1 1.0 
        0.0162340000         0.0324137478
p   8 1.0 
   898929.0904960000    146952.9919960352
   374553.7877070000     12442.5504737331
   156064.0782110000     42330.7420411669
    65026.6992550000     20798.1925978207
    27094.4580230000     19960.4353800448
    11289.3575090000     15850.9959832866
     4703.8989620000     14651.0236957151
     1959.9579010000     13090.7471121984
p   1 1.0 
      816.6491250000      6222.7802438241
p   1 1.0 
      340.2704690000      2083.1493738863
p   1 1.0 
      141.7793620000       697.3589194406
p   1 1.0 
       59.0747340000       233.4491550447
p   1 1.0 
       24.6144730000        78.1498709600
p   1 1.0 
       10.2560300000        26.1615933656
p   1 1.0 
        4.2733460000         8.7579035915
p   1 1.0 
        1.7805610000         2.9318122746
p   1 1.0 
        0.7419000000         0.9814581862
p   1 1.0 
        0.3091250000         0.3285547495
p   1 1.0 
        0.1288020000         0.1099875039
p   1 1.0 
        0.0536680000         0.0368200481
d   7 1.0 
    44331.4203980000     64843.3162357617
    17732.5681590000     31602.7270381044
     7093.0272640000     34771.4571863981
     2837.2109050000     31646.3841018500
     1134.8843620000     33447.3115951331
      453.9537450000     30100.7570519384
      181.5814980000     20377.9074888751
d   1 1.0 
       72.6325990000      5151.6975337973
d   1 1.0 
       29.0530400000      1036.4666967504
d   1 1.0 
       11.6212160000       208.5260597195
d   1 1.0 
        4.6484860000        41.9532158346
d   1 1.0 
        1.8593950000         8.4405449381
d   1 1.0 
        0.7437580000         1.6981477392
d   1 1.0 
        0.2975030000         0.3416488358
d   1 1.0 
        0.1190010000         0.0687359046
d   1 1.0 
        0.0476010000         0.0138292369
f   6 1.0 
     4946.8424820000     73594.6252860846
     1902.6317240000     64088.9553591663
      731.7814320000     69700.9550562524
      281.4543970000     68616.7606773400
      108.2516910000     50302.6238411210
       41.6352660000     20807.7454297462
f   1 1.0 
       16.0135640000      2924.8128280079
f   1 1.0 
        6.1590630000       340.7281644870
f   1 1.0 
        2.3688700000        39.6933580891
f   1 1.0 
        0.9111040000         4.6241080567
f   1 1.0 
        0.3504250000         0.5386901243
f   1 1.0 
        0.1347790000         0.0627552547

[5D]
[7F]
[9G]
[MO]
 Sym=     1a
 Ene= -4.60594256887235E+03
 Spin= Alpha
 Occup= 1.000000
  1      -0.092193014111
  2      -0.068715692798
  3      -0.116385610211
  4      -0.181272958938
  5      -0.265109041323
  6      -0.297468205495
  7      -0.186090321449
  8      -0.030325972044
  9      -0.000944664834
 10       0.000680703171
 11      -0.000493212763
 12       0.000360449001
 13      -0.000254544957
 14       0.000171178986
 15      -0.000113205528
 16       0.000074408771
 17      -0.000047978204
 18       0.000029674674
 19      -0.000016767930
 20       0.000007679296
 21      -0.000002068690
 22      -0.000000000054
 23       0.000000000031
 24      -0.000000000014
 25       0.000000000066
 26      -0.000000000038
 27       0.000000000017
 28      -0.000000000037
 29       0.000000000022
 30      -0.000000000010
 31       0.000000000014
 32      -0.000000000009
 33       0.000000000003
 34      -0.000000000015
 35       0.000000000012
 36      -0.000000000004
 37       0.000000000015
 38      -0.000000000013
 39       0.000000000004
 40      -0.000000000009
 41       0.000000000008
 42      -0.000000000002
 43       0.000000000003
 44      -0.000000000003
 45       0.000000000001
 46      -0.000000000001
 47       0.000000000001
 48      -0.000000000000
 49       0.000000000001
 50      -0.000000000001
 51       0.000000000000
 52      -0.000000000000
 53       0.000000000001
 54      -0.000000000000
 55      -0.000000000000
 56      -0.000000000000
 57      -0.000000000000
 58      -0.000000000000
 59       0.000000000000
 60      -0.000000000000
 61       0.000000000002
 62       0.000000000000
 63       0.000000000001
 64       0.000000000000
 65       0.000000000002
 66      -0.000000000003
 67       0.000000000001
 68      -0.000000000001
 69       0.000000000001
 70      -0.000000000003
 71       0.000000000002
 72      -0.000000000000
 73       0.000000000001
 74      -0.000000000001
 75       0.000000000002
 76      -0.000000000001
 77       0.000000000000
 78      -0.000000000000
 79       0.000000000001
 80      -0.000000000001
 81       0.000000000001
 82      -0.000000000000
 83       0.000000000000
 84      -0.000000000000
 85       0.000000000001
 86      -0.000000000000
 87       0.000000000000
 88      -0.000000000000
 89       0.000000000000
 90      -0.000000000000
 91       0.000000000000
 92      -0.000000000000
 93       0.000000000000
 94      -0.000000000000
 95       0.000000000000
 96      -0.000000000000
 97       0.000000000000
 98      -0.000000000000
 99       0.000000000000
100      -0.000000000000
101       0.000000000000
102      -0.000000000000
103       0.000000000000
104      -0.000000000000
105       0.000000000000
106      -0.000000000000
107      -0.000000000000
108      -0.000000000000
109       0.000000000000
110      -0.000000000000
111       0.000000000000
112      -0.000000000000
113      -0.000000000000
114      -0.000000000000
115       0.000000000000
116      -0.000000000000
117      -0.000000000001
118       0.000000000000
119      -0.000000000000
120       0.000000000000
121       0.000000000000
122       0.000000000000
123       0.000000000000
124       0.000000000001
125      -0.000000000000
126       0.000000000000
127      -0.000000000000
128      -0.000000000000
129      -0.000000000000
130      -0.000000000000
131      -0.000000000000
132       0.000000000000
133      -0.000000000000
134      -0.000000000000
135      -0.000000000000
136       0.000000000000
137      -0.000000000000
138       0.000000000000
139      -0.000000000000
140       0.000000000000
141       0.000000000000
142       0.000000000000
143      -0.000000000000
144       0.000000000000
145      -0.000000000000
146      -0.000000000000
147      -0.000000000000
148       0.000000000000
149       0.000000000000
150       0.000000000000
151       0.000000000000
152      -0.000000000000
153       0.000000000000
154       0.000000000000
155      -0.000000000000
156      -0.000000000000
157      -0.000000000000
158      -0.000000000000
159       0.000000000000
 Sym=     1a
 Ene= -8.79948355782315E+02
 Spin= Alpha
 Occup= 1.000000
  1       0.039578175770
  2       0.031908879375
  3       0.052654743099
  4       0.090020692313
  5       0.140618482595
  6       0.173783398749
  7       0.056536023169
  8      -0.386580743423
  9      -0.598915963556
 10      -0.155608781287
 11       0.001633185909
 12      -0.001127707281
 13       0.000504156835
 14      -0.000198433703
 15       0.000080030202
 16      -0.000043228366
 17       0.000025640140
 18      -0.000014832886
 19       0.000008193395
 20      -0.000003710150
 21       0.000000994444
 22       0.000000000662
 23      -0.000000000377
 24       0.000000000168
 25       0.000000001193
 26      -0.000000000680
 27       0.000000000303
 28       0.000000000983
 29      -0.000000000561
 30       0.000000000249
 31       0.000000000770
 32      -0.000000000435
 33       0.000000000194
 34      -0.000000000013
 35       0.000000000007
 36      -0.000000000002
 37      -0.000000000062
 38       0.000000000036
 39      -0.000000000017
 40      -0.000000000011
 41       0.000000000006
 42      -0.000000000002
 43       0.000000000087
 44      -0.000000000049
 45       0.000000000022
 46      -0.000000000082
 47       0.000000000046
 48      -0.000000000021
 49       0.000000000036
 50      -0.000000000020
 51       0.000000000009
 52      -0.000000000014
 53       0.000000000008
 54      -0.000000000004
 55       0.000000000007
 56      -0.000000000004
 57       0.000000000002
 58       0.000000000002
 59      -0.000000000001
 60       0.000000000001
 61      -0.000000000036
 62       0.000000000025
 63      -0.000000000017
 64       0.000000000033
 65      -0.000000000058
 66       0.000000000039
 67      -0.000000000027
 68       0.000000000018
 69      -0.000000000035
 70       0.000000000060
 71      -0.000000000023
 72       0.000000000016
 73      -0.000000000011
 74       0.000000000022
 75      -0.000000000036
 76       0.000000000016
 77      -0.000000000011
 78       0.000000000008
 79      -0.000000000015
 80       0.000000000025
 81      -0.000000000008
 82       0.000000000006
 83      -0.000000000004
 84       0.000000000008
 85      -0.000000000014
 86       0.000000000003
 87      -0.000000000002
 88       0.000000000002
 89      -0.000000000003
 90       0.000000000005
 91      -0.000000000003
 92       0.000000000002
 93      -0.000000000002
 94       0.000000000003
 95      -0.000000000005
 96       0.000000000002
 97      -0.000000000001
 98       0.000000000001
 99      -0.000000000001
100       0.000000000003
101      -0.000000000001
102       0.000000000000
103      -0.000000000000
104       0.000000000000
105      -0.000000000001
106       0.000000000000
107      -0.000000000000
108       0.000000000000
109       0.000000000000
110       0.000000000000
111       0.000000000000
112       0.000000000001
113      -0.000000000001
114      -0.000000000001
115       0.000000000003
116      -0.000000000003
117      -0.000000000003
118      -0.000000000000
119      -0.000000000001
120       0.000000000001
121       0.000000000001
122      -0.000000000003
123       0.000000000002
124       0.000000000002
125       0.000000000000
126       0.000000000000
127      -0.000000000001
128      -0.000000000001
129       0.000000000002
130      -0.000000000001
131      -0.000000000001
132       0.000000000000
133      -0.000000000000
134       0.000000000000
135       0.000000000000
136      -0.000000000001
137       0.000000000001
138       0.000000000000
139      -0.000000000000
140      -0.000000000000
141      -0.000000000000
142      -0.000000000000
143       0.000000000000
144      -0.000000000000
145       0.000000000000
146       0.000000000001
147       0.000000000001
148       0.000000000000
149       0.000000000000
150       0.000000000000
151       0.000000000000
152      -0.000000000001
153      -0.000000000000
154      -0.000000000000
155       0.000000000000
156      -0.000000000000
157      -0.000000000000
158      -0.000000000000
159       0.000000000001
 Sym=     1a
 Ene= -7.30663652560700E+02
 Spin= Alpha
 Occup= 1.000000
  1      -0.000000000000
  2      -0.000000000000
  3       0.000000000000
  4      -0.000000000001
  5       0.000000000000
  6      -0.000000000001
  7      -0.000000000001
  8       0.000000000001
  9       0.000000000002
 10       0.000000000004
 11      -0.000000000004
 12       0.000000000003
 13      -0.000000000001
 14      -0.000000000001
 15       0.000000000004
 16      -0.000000000005
 17       0.000000000006
 18      -0.000000000008
 19       0.000000000008
 20      -0.000000000005
 21       0.000000000001
 22      -0.046338837202
 23      -0.002615159865
 24       0.177672567849
 25      -0.077236662443
 26      -0.004358897028
 27       0.296141141580
 28      -0.114854785348
 29      -0.006481898187
 30       0.440376709367
 31      -0.059523868565
 32      -0.003359264963
 33       0.228226671506
 34      -0.001845717727
 35      -0.000104164181
 36       0.007076858803
 37      -0.001102378430
 38      -0.000062213380
 39       0.004226744099
 40       0.000758128898
 41       0.000042785454
 42      -0.002906821070
 43      -0.000465532445
 44      -0.000026272600
 45       0.001784946494
 46       0.000279539289
 47       0.000015775966
 48      -0.001071810737
 49      -0.000165494455
 50      -0.000009339778
 51       0.000634539551
 52       0.000092537516
 53       0.000005222410
 54      -0.000354807745
 55      -0.000044741669
 56      -0.000002525024
 57       0.000171548709
 58       0.000014006433
 59       0.000000790462
 60      -0.000053703532
 61      -0.000000000085
 62      -0.000000000179
 63       0.000000000109
 64       0.000000000051
 65      -0.000000000025
 66      -0.000000000039
 67      -0.000000000082
 68       0.000000000050
 69       0.000000000023
 70      -0.000000000012
 71       0.000000000039
 72       0.000000000082
 73      -0.000000000051
 74      -0.000000000024
 75       0.000000000012
 76      -0.000000000018
 77      -0.000000000039
 78       0.000000000024
 79       0.000000000012
 80      -0.000000000006
 81       0.000000000002
 82       0.000000000003
 83      -0.000000000003
 84      -0.000000000001
 85       0.000000000000
 86       0.000000000000
 87       0.000000000001
 88      -0.000000000000
 89      -0.000000000000
 90       0.000000000000
 91       0.000000000003
 92       0.000000000006
 93      -0.000000000004
 94      -0.000000000002
 95       0.000000000001
 96      -0.000000000001
 97      -0.000000000002
 98       0.000000000001
 99      -0.000000000000
100      -0.000000000000
101      -0.000000000001
102      -0.000000000002
103       0.000000000001
104       0.000000000001
105      -0.000000000000
106      -0.000000000000
107      -0.000000000001
108       0.000000000000
109      -0.000000000001
110      -0.000000000000
111       0.000000000002
112      -0.000000000002
113       0.000000000003
114      -0.000000000003
115       0.000000000003
116      -0.000000000001
117       0.000000000001
118       0.000000000000
119      -0.000000000001
120      -0.000000000001
121       0.000000000001
122       0.000000000000
123       0.000000000000
124       0.000000000000
125      -0.000000000001
126       0.000000000001
127      -0.000000000001
128      -0.000000000003
129      -0.000000000001
130       0.000000000000
131      -0.000000000001
132      -0.000000000000
133       0.000000000001
134       0.000000000000
135       0.000000000002
136      -0.000000000000
137       0.000000000000
138       0.000000000000
139       0.000000000001
140      -0.000000000001
141       0.000000000000
142      -0.000000000002
143       0.000000000001
144      -0.000000000000
145       0.000000000000
146      -0.000000000000
147       0.000000000001
148      -0.000000000001
149       0.000000000001
150      -0.000000000001
151      -0.000000000000
152      -0.000000000000
153       0.000000000000
154      -0.000000000000
155       0.000000000001
156      -0.000000000000
157       0.000000000000
158       0.000000000000
159      -0.000000000000
 Sym=     1a
 Ene= -7.30663652559317E+02
 Spin= Alpha
 Occup= 1.000000
  1      -0.000000000003
  2      -0.000000000002
  3      -0.000000000004
  4      -0.000000000008
  5      -0.000000000009
  6      -0.000000000015
  7      -0.000000000007
  8      -0.000000000002
  9       0.000000000109
 10      -0.000000000009
 11       0.000000000008
 12       0.000000000000
 13       0.000000000003
 14      -0.000000000006
 15       0.000000000007
 16      -0.000000000008
 17       0.000000000008
 18      -0.000000000006
 19       0.000000000004
 20      -0.000000000003
 21       0.000000000002
 22       0.089513813461
 23       0.158270980276
 24       0.025675713477
 25       0.149199863696
 26       0.263802957010
 27       0.042795774226
 28       0.221867669787
 29       0.392288209292
 30       0.063639459646
 31       0.114983646314
 32       0.203304648898
 33       0.032981358325
 34       0.003565416015
 35       0.006304076045
 36       0.001022686853
 37       0.002129490145
 38       0.003765189757
 39       0.000610812752
 40      -0.001464495290
 41      -0.002589400413
 42      -0.000420068812
 43       0.000899279893
 44       0.001590032919
 45       0.000257945135
 46      -0.000539992570
 47      -0.000954770555
 48      -0.000154888881
 49       0.000319689503
 50       0.000565248749
 51       0.000091698205
 52      -0.000178756882
 53      -0.000316063252
 54      -0.000051273768
 55       0.000086428530
 56       0.000152815837
 57       0.000024790746
 58      -0.000027056556
 59      -0.000047839184
 60      -0.000007760773
 61      -0.000000000011
 62      -0.000000000052
 63      -0.000000000029
 64      -0.000000000192
 65      -0.000000000120
 66      -0.000000000001
 67      -0.000000000025
 68      -0.000000000012
 69      -0.000000000087
 70      -0.000000000052
 71       0.000000000002
 72       0.000000000025
 73       0.000000000013
 74       0.000000000090
 75       0.000000000053
 76       0.000000000000
 77      -0.000000000012
 78      -0.000000000009
 79      -0.000000000043
 80      -0.000000000027
 81      -0.000000000001
 82       0.000000000002
 83       0.000000000003
 84       0.000000000005
 85       0.000000000005
 86       0.000000000001
 87      -0.000000000000
 88      -0.000000000002
 89      -0.000000000000
 90      -0.000000000001
 91       0.000000000000
 92       0.000000000002
 93       0.000000000002
 94       0.000000000009
 95       0.000000000005
 96       0.000000000000
 97      -0.000000000001
 98      -0.000000000001
 99      -0.000000000003
100      -0.000000000001
101      -0.000000000000
102      -0.000000000000
103       0.000000000000
104      -0.000000000001
105      -0.000000000001
106       0.000000000000
107      -0.000000000000
108      -0.000000000000
109      -0.000000000001
110      -0.000000000000
111       0.000000000000
112       0.000000000000
113      -0.000000000000
114      -0.000000000003
115       0.000000000003
116       0.000000000002
117      -0.000000000047
118      -0.000000000000
119       0.000000000000
120       0.000000000001
121       0.000000000001
122      -0.000000000003
123       0.000000000003
124       0.000000000023
125      -0.000000000000
126       0.000000000000
127      -0.000000000001
128       0.000000000002
129       0.000000000002
130      -0.000000000004
131      -0.000000000015
132      -0.000000000000
133      -0.000000000000
134       0.000000000000
135      -0.000000000000
136      -0.000000000001
137       0.000000000001
138       0.000000000008
139       0.000000000000
140       0.000000000000
141       0.000000000000
142      -0.000000000000
143       0.000000000001
144       0.000000000001
145      -0.000000000002
146       0.000000000000
147       0.000000000000
148      -0.000000000000
149      -0.000000000000
150      -0.000000000001
151      -0.000000000001
152      -0.000000000002
153      -0.000000000000
154      -0.000000000000
155      -0.000000000000
156       0.000000000000
157       0.000000000000
158       0.000000000000
159       0.000000000001
 Sym=     1a
 Ene= -7.30663652546552E+02
 Spin= Alpha
 Occup= 1.000000
  1      -0.000000000110
  2      -0.000000000089
  3      -0.000000000143
  4      -0.000000000253
  5      -0.000000000372
  6      -0.000000000432
  7      -0.000000000530
  8       0.000000000540
  9       0.000000003105
 10       0.000000000206
 11       0.000000000235
 12      -0.000000000052
 13       0.000000000202
 14      -0.000000000306
 15       0.000000000311
 16      -0.000000000319
 17       0.000000000306
 18      -0.000000000219
 19       0.000000000131
 20      -0.000000000070
 21       0.000000000022
 22       0.153498070447
 23      -0.093086658567
 24       0.038663737947
 25       0.255847564781
 26      -0.155155011647
 27       0.064443957962
 28       0.380458142443
 29      -0.230723272951
 30       0.095831393036
 31       0.197173678236
 32      -0.119573091768
 33       0.049664933269
 34       0.006113966743
 35      -0.003707725660
 36       0.001540011593
 37       0.003651644498
 38      -0.002214486371
 39       0.000919791534
 40      -0.002511312974
 41       0.001522949004
 42      -0.000632560046
 43       0.001542083012
 44      -0.000935173676
 45       0.000388426338
 46      -0.000925977974
 47       0.000561545791
 48      -0.000233239216
 49       0.000548202792
 50      -0.000332449561
 51       0.000138083619
 52      -0.000306531873
 53       0.000185891769
 54      -0.000077210534
 55       0.000148207439
 56      -0.000089878233
 57       0.000037331111
 58      -0.000046396518
 59       0.000028136490
 60      -0.000011686549
 61       0.000000000117
 62      -0.000000000083
 63       0.000000000050
 64      -0.000000000109
 65       0.000000000194
 66       0.000000000051
 67      -0.000000000039
 68       0.000000000020
 69      -0.000000000049
 70       0.000000000083
 71      -0.000000000052
 72       0.000000000040
 73      -0.000000000020
 74       0.000000000050
 75      -0.000000000087
 76       0.000000000025
 77      -0.000000000019
 78       0.000000000006
 79      -0.000000000023
 80       0.000000000038
 81      -0.000000000002
 82       0.000000000002
 83       0.000000000003
 84       0.000000000002
 85       0.000000000001
 86      -0.000000000001
 87       0.000000000000
 88      -0.000000000003
 89      -0.000000000001
 90      -0.000000000004
 91      -0.000000000004
 92       0.000000000003
 93      -0.000000000000
 94       0.000000000005
 95      -0.000000000006
 96       0.000000000001
 97      -0.000000000001
 98      -0.000000000000
 99      -0.000000000002
100       0.000000000001
101       0.000000000001
102      -0.000000000001
103       0.000000000001
104      -0.000000000001
105       0.000000000002
106       0.000000000000
107      -0.000000000000
108       0.000000000000
109      -0.000000000000
110       0.000000000001
111       0.000000000002
112       0.000000000003
113      -0.000000000002
114       0.000000000000
115       0.000000000001
116       0.000000000001
117       0.000000000024
118      -0.000000000000
119      -0.000000000000
120      -0.000000000000
121      -0.000000000001
122       0.000000000002
123      -0.000000000001
124      -0.000000000014
125      -0.000000000001
126      -0.000000000001
127       0.000000000001
128       0.000000000001
129      -0.000000000002
130       0.000000000001
131       0.000000000011
132      -0.000000000000
133      -0.000000000000
134      -0.000000000000
135      -0.000000000000
136       0.000000000001
137      -0.000000000000
138      -0.000000000005
139       0.000000000001
140       0.000000000001
141      -0.000000000000
142       0.000000000000
143       0.000000000000
144       0.000000000000
145      -0.000000000000
146      -0.000000000001
147      -0.000000000001
148       0.000000000000
149      -0.000000000000
150      -0.000000000000
151       0.000000000000
152       0.000000000002
153       0.000000000000
154       0.000000000000
155      -0.000000000000
156      -0.000000000000
157       0.000000000000
158      -0.000000000000
159      -0.000000000001
 Sym=     1a
 Ene= -2.27817872170653E+02
 Spin= Alpha
 Occup= 1.000000
  1      -0.019455509810
  2      -0.015925908494
  3      -0.026039896185
  4      -0.045712374381
  5      -0.071238624793
  6      -0.092220492665
  7      -0.015737872652
  8       0.314061904075
  9       0.683142318220
 10      -0.254873764219
 11      -0.970382087610
 12      -0.116976542767
 13      -0.021965002828
 14       0.016717545613
 15      -0.011680320970
 16       0.007957890781
 17      -0.005221519318
 18       0.003256117021
 19      -0.001848198434
 20       0.000848333605
 21      -0.000228785121
 22      -0.000000002065
 23       0.000000001169
 24      -0.000000000525
 25      -0.000000003664
 26       0.000000002075
 27      -0.000000000932
 28      -0.000000005734
 29       0.000000003249
 30      -0.000000001458
 31       0.000000005594
 32      -0.000000003190
 33       0.000000001424
 34       0.000000011399
 35      -0.000000006437
 36       0.000000002895
 37       0.000000003874
 38      -0.000000002175
 39       0.000000000985
 40      -0.000000000367
 41       0.000000000202
 42      -0.000000000095
 43      -0.000000000384
 44       0.000000000226
 45      -0.000000000096
 46       0.000000000279
 47      -0.000000000164
 48       0.000000000069
 49       0.000000000129
 50      -0.000000000071
 51       0.000000000034
 52      -0.000000000178
 53       0.000000000099
 54      -0.000000000046
 55       0.000000000064
 56      -0.000000000034
 57       0.000000000017
 58      -0.000000000051
 59       0.000000000027
 60      -0.000000000013
 61       0.000000000373
 62      -0.000000000257
 63       0.000000000166
 64      -0.000000000332
 65       0.000000000560
 66       0.000000000200
 67      -0.000000000134
 68       0.000000000093
 69      -0.000000000174
 70       0.000000000299
 71       0.000000000004
 72      -0.000000000004
 73       0.000000000002
 74       0.000000000003
 75       0.000000000002
 76      -0.000000000010
 77       0.000000000007
 78      -0.000000000000
 79       0.000000000004
 80      -0.000000000010
 81      -0.000000000011
 82       0.000000000007
 83      -0.000000000008
 84       0.000000000013
 85      -0.000000000021
 86       0.000000000032
 87      -0.000000000023
 88       0.000000000017
 89      -0.000000000033
 90       0.000000000057
 91      -0.000000000004
 92       0.000000000003
 93      -0.000000000003
 94       0.000000000006
 95      -0.000000000013
 96       0.000000000005
 97      -0.000000000004
 98       0.000000000002
 99      -0.000000000001
100       0.000000000012
101      -0.000000000004
102       0.000000000003
103       0.000000000001
104       0.000000000000
105      -0.000000000010
106       0.000000000001
107      -0.000000000001
108      -0.000000000000
109       0.000000000002
110       0.000000000004
111       0.000000000003
112       0.000000000006
113       0.000000000000
114       0.000000000001
115      -0.000000000003
116       0.000000000005
117       0.000000000007
118      -0.000000000002
119      -0.000000000005
120       0.000000000000
121      -0.000000000001
122       0.000000000001
123      -0.000000000004
124      -0.000000000001
125       0.000000000003
126       0.000000000005
127      -0.000000000001
128       0.000000000000
129       0.000000000001
130       0.000000000002
131      -0.000000000002
132      -0.000000000003
133      -0.000000000003
134       0.000000000002
135       0.000000000001
136      -0.000000000002
137      -0.000000000000
138       0.000000000003
139       0.000000000001
140       0.000000000002
141      -0.000000000002
142      -0.000000000001
143       0.000000000002
144      -0.000000000000
145      -0.000000000003
146       0.000000000005
147       0.000000000003
148       0.000000000004
149       0.000000000004
150      -0.000000000001
151      -0.000000000000
152       0.000000000002
153      -0.000000000002
154      -0.000000000002
155      -0.000000000003
156      -0.000000000003
157       0.000000000001
158       0.000000000000
159       0.000000000001
 Sym=     1a
 Ene= -1.85939945662831E+02
 Spin= Alpha
 Occup= 1.000000
  1      -0.000000000333
  2      -0.000000000275
  3      -0.000000000436
  4      -0.000000000804
  5      -0.000000001159
  6      -0.000000001651
  7      -0.000000000267
  8       0.000000004542
  9       0.000000010481
 10       0.000000006296
 11      -0.000000028752
 12       0.000000000042
 13      -0.000000000418
 14      -0.000000001135
 15      -0.000000000154
 16       0.000000000973
 17      -0.000000000927
 18       0.000000001105
 19      -0.000000001024
 20       0.000000000554
 21      -0.000000000202
 22       0.087179455705
 23      -0.050783928527
 24       0.022175171370
 25       0.156008610859
 26      -0.090878407984
 27       0.039682717138
 28       0.234358249585
 29      -0.136518776131
 30       0.059611915497
 31      -0.113222573759
 32       0.065954611057
 33      -0.028799560124
 34      -0.626969379019
 35       0.365223295737
 36      -0.159477405672
 37      -0.206089534916
 38       0.120051635175
 39      -0.052421418747
 40       0.006161710581
 41      -0.003589330388
 42       0.001567307185
 43      -0.004486159286
 44       0.002613285328
 45      -0.001141110019
 46       0.002541688491
 47      -0.001480588807
 48       0.000646509850
 49      -0.001413920328
 50       0.000823639330
 51      -0.000359648090
 52       0.000779097237
 53      -0.000453841082
 54       0.000198172999
 55      -0.000374738247
 56       0.000218293181
 57      -0.000095319297
 58       0.000117246902
 59      -0.000068298873
 60       0.000029823195
 61      -0.000000001819
 62       0.000000001340
 63      -0.000000000752
 64       0.000000001762
 65      -0.000000002996