[Molden Format]
[Title]
 Molden file created by orca_2mkl for BaseName=/data01/2/Np_OH_3

[Atoms] AU
O    1   8          3.4494682903        -0.7802414645         0.0947735451 
Np   2  93          1.0838996673        -3.3364343216         0.3004456683 
O    3   8         -1.0837031357        -2.5053970186        -2.3037008792 
O    4   8         -0.7627312622        -2.3672051259         3.0971401910 
H    5   1         -1.7108635553        -1.8893122839         4.5464618700 
H    6   1          4.6848295072         0.5199184615        -0.0119884226 
H    7   1         -2.1979574739        -2.0991455841        -3.6533508429 
[GTO]
  1 0
s   6 1.0 
    27032.3826310000         1.4645050749
     4052.3871392000         1.8244031008
      922.3272271000         2.8547160967
      261.2407098900         4.3654874290
       85.3546413500         5.8940772662
       31.0350352400         6.2963020147
s   1 1.0 
       12.2608607300         4.6698272139
s   1 1.0 
        4.9987076000         2.3826123703
s   1 1.0 
        1.1703108200         0.8019291632
s   1 1.0 
        0.4647474100        -0.4011648063
s   1 1.0 
        0.1850453600         0.2010799377
p   4 1.0 
       63.2749548000         3.0898340730
       14.6270493800         3.3923831935
        4.4501223500         2.9482801524
        1.5275799600         1.7113350234
p   1 1.0 
        0.5293511800         0.6436057935
p   1 1.0 
        0.1747842100         0.1610897223
d   1 1.0 
        2.3140000000        12.3767310624
d   1 1.0 
        0.6450000000         1.3234257612
f   1 1.0 
        1.4280000000        12.7097950062

  2 0
s   9 1.0 
 60212393.7825810015     16460.1280594584
 27369269.9011729993     -6013.5086094560
 12440577.2278060000      9343.9211279925
  5654807.8308210000       308.3663916485
  2570367.1958280001      4334.3325603517
  1168348.7253759999      1972.8827387435
   531067.6024440000      2728.3967901233
   241394.3647470000      2034.2792369220
   109724.7112490000      2086.3436128711
s   1 1.0 
    49874.8687490000      2378.6000111367
s   1 1.0 
    22670.3948860000      1316.7532712607
s   1 1.0 
    10304.7249480000       728.9326365214
s   1 1.0 
     4683.9658860000       403.5249429308
s   1 1.0 
     2129.0754030000       223.3846742626
s   1 1.0 
      967.7615470000       123.6620277677
s   1 1.0 
      439.8916120000        68.4572348252
s   1 1.0 
      199.9507330000        37.8967827997
s   1 1.0 
       90.8866970000        20.9790265547
s   1 1.0 
       41.3121350000        11.6136389953
s   1 1.0 
       18.7782430000         6.4291166887
s   1 1.0 
        8.5355650000         3.5590517075
s   1 1.0 
        3.8798020000         1.9702315267
s   1 1.0 
        1.7635460000         1.0906871246
s   1 1.0 
        0.8016120000         0.6037862931
s   1 1.0 
        0.3643690000         0.3342459531
s   1 1.0 
        0.1656220000         0.1850327531
s   1 1.0 
        0.0752830000         0.1024313225
s   1 1.0 
        0.0342190000         0.0567035929
s   1 1.0 
        0.0155540000         0.0313900251
p   8 1.0 
   859302.8310040000    131775.7051530663
   358042.8462520000     11325.8407160590
   149184.5192720000     38266.0812549783
    62160.2163630000     19009.8155098714
    25900.0901510000     18342.5702252260
    10791.7042300000     14732.4699955005
     4496.5434290000     13756.3118120073
     1873.5597620000     12431.3284313481
p   1 1.0 
      780.6499010000      5881.8029941886
p   1 1.0 
      325.2707920000      1969.0031994381
p   1 1.0 
      135.5294970000       659.1471384521
p   1 1.0 
       56.4706240000       220.6573109288
p   1 1.0 
       23.5294270000        73.8676489948
p   1 1.0 
        9.8039280000        24.7280704473
p   1 1.0 
        4.0849700000         8.2780143929
p   1 1.0 
        1.7020710000         2.7711636791
p   1 1.0 
        0.7091960000         0.9276794468
p   1 1.0 
        0.2954980000         0.3105512418
p   1 1.0 
        0.1231240000         0.1039605296
p   1 1.0 
        0.0513020000         0.0348023010
d   7 1.0 
    42129.4422870000     56906.5227948507
    16851.7769150000     28000.6591442440
     6740.7107660000     31059.1451506409
     2696.2843060000     28550.8495479176
     1078.5137230000     30419.9475915360
      431.4054890000     27516.9214778059
      172.5621960000     18646.3556919396
d   1 1.0 
       69.0248780000      4712.2678372904
d   1 1.0 
       27.6099510000       948.0580852984
d   1 1.0 
       11.0439810000       190.7392068921
d   1 1.0 
        4.4175920000        38.3746907348
d   1 1.0 
        1.7670370000         7.7205805666
d   1 1.0 
        0.7068150000         1.5532993453
d   1 1.0 
        0.2827260000         0.3125072837
d   1 1.0 
        0.1130900000         0.0628727477
d   1 1.0 
        0.0452360000         0.0126493272
f   6 1.0 
     4574.1842730000     62886.0548377263
     1759.3016440000     54541.2436081452
      676.6544780000     60258.2175061621
      260.2517220000     58997.4055482529
      100.0968160000     42811.8352412536
       38.4987760000     17381.1576470009
f   1 1.0 
       14.8072210000      2452.2547560014
f   1 1.0 
        5.6950850000       285.6771815775
f   1 1.0 
        2.1904170000        33.2801582217
f   1 1.0 
        0.8424680000         3.8769951722
f   1 1.0 
        0.3240260000         0.4516528586
f   1 1.0 
        0.1246250000         0.0526152593

  3 0
s   6 1.0 
    27032.3826310000         1.4645050749
     4052.3871392000         1.8244031008
      922.3272271000         2.8547160967
      261.2407098900         4.3654874290
       85.3546413500         5.8940772662
       31.0350352400         6.2963020147
s   1 1.0 
       12.2608607300         4.6698272139
s   1 1.0 
        4.9987076000         2.3826123703
s   1 1.0 
        1.1703108200         0.8019291632
s   1 1.0 
        0.4647474100        -0.4011648063
s   1 1.0 
        0.1850453600         0.2010799377
p   4 1.0 
       63.2749548000         3.0898340730
       14.6270493800         3.3923831935
        4.4501223500         2.9482801524
        1.5275799600         1.7113350234
p   1 1.0 
        0.5293511800         0.6436057935
p   1 1.0 
        0.1747842100         0.1610897223
d   1 1.0 
        2.3140000000        12.3767310624
d   1 1.0 
        0.6450000000         1.3234257612
f   1 1.0 
        1.4280000000        12.7097950062

  4 0
s   6 1.0 
    27032.3826310000         1.4645050749
     4052.3871392000         1.8244031008
      922.3272271000         2.8547160967
      261.2407098900         4.3654874290
       85.3546413500         5.8940772662
       31.0350352400         6.2963020147
s   1 1.0 
       12.2608607300         4.6698272139
s   1 1.0 
        4.9987076000         2.3826123703
s   1 1.0 
        1.1703108200         0.8019291632
s   1 1.0 
        0.4647474100        -0.4011648063
s   1 1.0 
        0.1850453600         0.2010799377
p   4 1.0 
       63.2749548000         3.0898340730
       14.6270493800         3.3923831935
        4.4501223500         2.9482801524
        1.5275799600         1.7113350234
p   1 1.0 
        0.5293511800         0.6436057935
p   1 1.0 
        0.1747842100         0.1610897223
d   1 1.0 
        2.3140000000        12.3767310624
d   1 1.0 
        0.6450000000         1.3234257612
f   1 1.0 
        1.4280000000        12.7097950062

  5 0
s   3 1.0 
       34.0613410000         0.2556300129
        5.1235746000         0.4613599287
        1.1646626000         0.6811215012
s   1 1.0 
        0.3272304100         0.3083545312
s   1 1.0 
        0.1030724100         0.1296483265
p   1 1.0 
        0.8000000000         1.0784563492

  6 0
s   3 1.0 
       34.0613410000         0.2556300129
        5.1235746000         0.4613599287
        1.1646626000         0.6811215012
s   1 1.0 
        0.3272304100         0.3083545312
s   1 1.0 
        0.1030724100         0.1296483265
p   1 1.0 
        0.8000000000         1.0784563492

  7 0
s   3 1.0 
       34.0613410000         0.2556300129
        5.1235746000         0.4613599287
        1.1646626000         0.6811215012
s   1 1.0 
        0.3272304100         0.3083545312
s   1 1.0 
        0.1030724100         0.1296483265
p   1 1.0 
        0.8000000000         1.0784563492

[5D]
[9G]
[MO]
 Sym=     1a
 Ene= -4.37317707537326E+03
 Spin= Alpha
 Occup= 1.000000
  1      -0.000000049634
  2       0.000000230204
  3      -0.000000444251
  4       0.000001488732
  5       0.000003393029
  6       0.000006878222
  7      -0.000000046676
  8      -0.000000078299
  9       0.000000004780
 10      -0.000000204608
 11      -0.000000129173
 12       0.000000015452
 13      -0.000003886133
 14      -0.000004264982
 15       0.000000340211
 16      -0.000000047777
 17      -0.000000005811
 18      -0.000000006488
 19      -0.000000014273
 20       0.000000067106
 21       0.000000412045
 22       0.000000056224
 23       0.000000059785
 24       0.000000060585
 25      -0.000000670597
 26       0.000000010500
 27      -0.000000050669
 28      -0.000000048366
 29       0.000000000212
 30      -0.000000012738
 31       0.000000065809
 32      -0.000000055358
 33       0.087306445683
 34       0.066328209682
 35       0.113242614910
 36       0.178787882620
 37       0.264676439087
 38       0.301328000044
 39       0.190680899278
 40       0.031596633932
 41       0.000893207213
 42      -0.000634737506
 43       0.000463023633
 44      -0.000342722136
 45       0.000244784042
 46      -0.000167296194
 47       0.000114817194
 48      -0.000081710156
 49       0.000061163702
 50      -0.000042791388
 51       0.000002839973
 52      -0.000002984870
 53       0.000000727976
 54       0.000000090394
 55      -0.000000238774
 56       0.000000000726
 57      -0.000000026860
 58       0.000000070841
 59      -0.000000000219
 60      -0.000000004393
 61       0.000000011571
 62      -0.000000000034
 63      -0.000000011378
 64       0.000000030033
 65      -0.000000000094
 66       0.000000018345
 67      -0.000000048426
 68       0.000000000151
 69      -0.000000027299
 70       0.000000072049
 71      -0.000000000225
 72       0.000000046745
 73      -0.000000123367
 74       0.000000000384
 75      -0.000000067382
 76       0.000000177811
 77      -0.000000000555
 78       0.000000070733
 79      -0.000000186590
 80       0.000000000590
 81       0.000000027192
 82      -0.000000071955
 83       0.000000000185
 84      -0.000000364477
 85       0.000000963043
 86      -0.000000002838
 87       0.000003072286
 88      -0.000008116974
 89       0.000000024074
 90      -0.000000254979
 91       0.000000674928
 92      -0.000000001868
 93       0.000000003826
 94      -0.000000000011
 95       0.000000000038
 96       0.000000004941
 97       0.000000004388
 98      -0.000000006265
 99       0.000000000015
100      -0.000000000064
101      -0.000000008074
102      -0.000000007166
103       0.000000022743
104      -0.000000000065
105       0.000000000222
106       0.000000029387
107       0.000000026044
108      -0.000000041699
109       0.000000000120
110      -0.000000000406
111      -0.000000053885
112      -0.000000047746
113       0.000000076405
114      -0.000000000222
115       0.000000000744
116       0.000000098741
117       0.000000087485
118      -0.000000134806
119       0.000000000396
120      -0.000000001311
121      -0.000000174222
122      -0.000000154358
123       0.000000198550
124      -0.000000000619
125       0.000000001931
126       0.000000256650
127       0.000000227431
128      -0.000000275492
129       0.000000001032
130      -0.000000002663
131      -0.000000356472
132      -0.000000316093
133      -0.000000816991
134       0.000000001530
135      -0.000000008258
136      -0.000001053781
137      -0.000000934213
138       0.000000097389
139      -0.000000000291
140       0.000000001005
141       0.000000125808
142       0.000000111850
143       0.000000003230
144      -0.000000022965
145       0.000000002274
146      -0.000000001937
147      -0.000000001810
148       0.000000009207
149      -0.000000010871
150      -0.000000010763
151       0.000000077281
152      -0.000000009490
153       0.000000006478
154       0.000000006051
155      -0.000000033027
156       0.000000037470
157       0.000000023461
158      -0.000000168494
159       0.000000021010
160      -0.000000014124
161      -0.000000013193
162       0.000000072364
163      -0.000000081849
164      -0.000000045644
165       0.000000327777
166      -0.000000041008
167       0.000000027481
168       0.000000025669
169      -0.000000140923
170       0.000000159289
171       0.000000075629
172      -0.000000544048
173       0.000000070179
174      -0.000000045556
175      -0.000000042563
176       0.000000236269
177      -0.000000265409
178      -0.000000068122
179       0.000000494206
180      -0.000000072784
181       0.000000041086
182       0.000000038522
183      -0.000000224962
184       0.000000245591
185      -0.000000199870
186       0.000001421365
187      -0.000000147409
188       0.000000120250
189       0.000000111735
190      -0.000000576530
191       0.000000675386
192      -0.000000049635
193       0.000000230210
194      -0.000000444271
195       0.000001488919
196       0.000003393212
197       0.000006881204
198       0.000000057139
199      -0.000000038814
200       0.000000059740
201       0.000000139757
202       0.000000002164
203       0.000000197245
204       0.000003595156
205      -0.000001418632
206       0.000004296904
207       0.000000022517
208       0.000000068366
209      -0.000000027238
210       0.000000017022
211      -0.000000029065
212      -0.000000259032
213      -0.000000644875
214       0.000000238076
215      -0.000000209412
216       0.000000215439
217       0.000000009143
218      -0.000000080021
219       0.000000026254
220      -0.000000051948
221       0.000000044493
222       0.000000012108
223      -0.000000024070
224      -0.000000049634
225       0.000000230205
226      -0.000000444262
227       0.000001488893
228       0.000003393328
229       0.000006880413
230       0.000000049794
231      -0.000000041987
232      -0.000000064004
233       0.000000115552
234      -0.000000008361
235      -0.000000212465
236       0.000003066427
237      -0.000001646605
238      -0.000004614274
239       0.000000033318
240      -0.000000062582
241       0.000000033794
242       0.000000007661
243      -0.000000028827
244      -0.000000362550
245       0.000000589336
246      -0.000000299821
247      -0.000000122168
248       0.000000215317
249       0.000000010925
250      -0.000000084023
251       0.000000038648
252       0.000000033451
253      -0.000000048789
254       0.000000002919
255      -0.000000019929
256       0.000000126592
257       0.000002421487
258       0.000001051685
259       0.000000280748
260      -0.000000143420
261      -0.000000427708
262       0.000000126550
263       0.000002422234
264       0.000001051240
265      -0.000000363859
266      -0.000000386173
267       0.000000031577
268       0.000000126556
269       0.000002420949
270       0.000001051747
271       0.000000329645
272      -0.000000122217
273       0.000000398287
 Sym=     1a
 Ene= -8.28828506330464E+02
 Spin= Alpha
 Occup= 1.000000
  1      -0.000000076275
  2       0.000000371042
  3      -0.000000728062
  4       0.000002509365
  5       0.000005766459
  6       0.000011755305
  7      -0.000000077143
  8      -0.000000130635
  9       0.000000007927
 10      -0.000000316162
 11      -0.000000180982
 12       0.000000023413
 13      -0.000006626360
 14      -0.000007276411
 15       0.000000580198
 16      -0.000000075410
 17      -0.000000009013
 18      -0.000000010152
 19      -0.000000024170
 20       0.000000103784
 21       0.000000696508
 22       0.000000094765
 23       0.000000101060
 24       0.000000106130
 25      -0.000001132259
 26       0.000000017478
 27      -0.000000084375
 28      -0.000000080467
 29       0.000000000358
 30      -0.000000021158
 31       0.000000109466
 32      -0.000000091650
 33       0.037061935238
 34       0.030426007369
 35       0.050706392744
 36       0.087784448434
 37       0.139378084888
 38       0.176536063551
 39       0.067158276729
 40      -0.374932284394
 41      -0.607144893872
 42      -0.165180832531
 43       0.001952812529
 44      -0.001582318630
 45       0.000817141422
 46      -0.000406613466
 47       0.000223807745
 48      -0.000148396459
 49       0.000107849862
 50      -0.000074035144
 51       0.000005195770
 52      -0.000005240083
 53       0.000001272813
 54       0.000000328056
 55      -0.000000862541
 56       0.000000002747
 57       0.000000348909
 58      -0.000000915176
 59       0.000000002987
 60       0.000000828875
 61      -0.000002178639
 62       0.000000006928
 63       0.000000070808
 64      -0.000000178324
 65       0.000000000849
 66      -0.000000110362
 67       0.000000293208
 68      -0.000000000801
 69       0.000000074810
 70      -0.000000197747
 71       0.000000000571
 72       0.000000054182
 73      -0.000000142836
 74       0.000000000464
 75      -0.000000103299
 76       0.000000272474
 77      -0.000000000865
 78       0.000000080163
 79      -0.000000211306
 80       0.000000000695
 81       0.000000075729
 82      -0.000000200317
 83       0.000000000532
 84      -0.000000633546
 85       0.000001674130
 86      -0.000000004902
 87       0.000005251905
 88      -0.000013875621
 89       0.000000040963
 90      -0.000000432297
 91       0.000001144353
 92      -0.000000003157
 93      -0.000000290470
 94       0.000000000854
 95      -0.000000002841
 96      -0.000000375484
 97      -0.000000332881
 98       0.000000163848
 99      -0.000000000593
100       0.000000001481
101       0.000000212582
102       0.000000188103
103       0.000000015705
104      -0.000000000007
105       0.000000000191
106       0.000000020025
107       0.000000017872
108      -0.000000027520
109       0.000000000049
110      -0.000000000300
111      -0.000000035337
112      -0.000000031381
113       0.000000091316
114      -0.000000000250
115       0.000000000910
116       0.000000117872
117       0.000000104462
118      -0.000000218948
119       0.000000000646
120      -0.000000002136
121      -0.000000282941
122      -0.000000250693
123       0.000000322554
124      -0.000000001009
125       0.000000003146
126       0.000000416902
127       0.000000369460
128      -0.000000456047
129       0.000000001724
130      -0.000000004418
131      -0.000000590087
132      -0.000000523259
133      -0.000001403841
134       0.000000002745
135      -0.000000014222
136      -0.000001810752
137      -0.000001605293
138       0.000000166691
139      -0.000000000511
140       0.000000001725
141       0.000000215336
142       0.000000191453
143       0.000000021888
144      -0.000000197322
145       0.000000116120
146      -0.000000014280
147      -0.000000013310
148       0.000000186566
149      -0.000000139955
150      -0.000000043203
151       0.000000332836
152      -0.000000090298
153       0.000000026601
154       0.000000024839
155      -0.000000197223
156       0.000000185192
157       0.000000061242
158      -0.000000452991
159       0.000000083901
160      -0.000000037205
161      -0.000000034750
162       0.000000225039
163      -0.000000233257
164      -0.000000084541
165       0.000000614319
166      -0.000000092327
167       0.000000051087
168       0.000000047717
169      -0.000000281329
170       0.000000305993
171       0.000000127686
172      -0.000000921936
173       0.000000126413
174      -0.000000077003
175      -0.000000071945
176       0.000000408719
177      -0.000000453370
178      -0.000000113857
179       0.000000828711
180      -0.000000127378
181       0.000000068736
182       0.000000064445
183      -0.000000383166
184       0.000000414390
185      -0.000000343501
186       0.000002441961
187      -0.000000251423
188       0.000000206620
189       0.000000192040
190      -0.000000988470
191       0.000001159468
192      -0.000000076272
193       0.000000371033
194      -0.000000728061
195       0.000002509604
196       0.000005766650
197       0.000011760214
198       0.000000095061
199      -0.000000065136
200       0.000000099098
201       0.000000206300
202       0.000000018341
203       0.000000299123
204       0.000006132262
205      -0.000002422201
206       0.000007327938
207       0.000000033950
208       0.000000106592
209      -0.000000043041
210       0.000000025383
211      -0.000000046806
212      -0.000000435676
213      -0.000001088899
214       0.000000404210
215      -0.000000352734
216       0.000000366360
217       0.000000015405
218      -0.000000132994
219       0.000000043569
220      -0.000000086122
221       0.000000074080
222       0.000000019967
223      -0.000000040182
224      -0.000000076274
225       0.000000371043
226      -0.000000728077
227       0.000002509640
228       0.000005767022
229       0.000011759216
230       0.000000082886
231      -0.000000070398
232      -0.000000106166
233       0.000000169591
234       0.000000002362
235      -0.000000322354
236       0.000005230658
237      -0.000002811037
238      -0.000007869323
239       0.000000050733
240      -0.000000097610
241       0.000000053266
242       0.000000010764
243      -0.000000046371
244      -0.000000610269
245       0.000000995282
246      -0.000000508543
247      -0.000000205318
248       0.000000365895
249       0.000000017952
250      -0.000000139650
251       0.000000064147
252       0.000000055359
253      -0.000000081248
254       0.000000004720
255      -0.000000033264
256       0.000000211049
257       0.000004082555
258       0.000001812875
259       0.000000467981
260      -0.000000238373
261      -0.000000713455
262       0.000000210985
263       0.000004083809
264       0.000001812075
265      -0.000000607282
266      -0.000000643307
267       0.000000052679
268       0.000000210987
269       0.000004081568
270       0.000001812965
271       0.000000549535
272      -0.000000202996
273       0.000000664357
 Sym=     1a
 Ene= -6.93156563941822E+02
 Spin= Alpha
 Occup= 1.000000
  1      -0.000000075024
  2       0.000000361126
  3      -0.000000727971
  4       0.000003075247
  5       0.000007143078
  6       0.000020283076
  7      -0.000000505966
  8      -0.000000481255
  9      -0.000000948433
 10       0.000006305959
 11       0.000006469662
 12       0.000003822094
 13       0.000003690306
 14       0.000004735487
 15      -0.000016319148
 16       0.000000081297
 17       0.000000771016
 18       0.000000293985
 19       0.000000088373
 20      -0.000000209919
 21       0.000000320253
 22      -0.000001803030
 23      -0.000000343439
 24      -0.000000099226
 25      -0.000000407361
 26      -0.000000018677
 27       0.000000033417
 28       0.000000031393
 29      -0.000000055588
 30      -0.000000158565
 31      -0.000000043058
 32       0.000000025335
 33       0.000000000065
 34       0.000000000055
 35       0.000000000087
 36       0.000000000165
 37       0.000000000235
 38       0.000000000344
 39       0.000000000043
 40      -0.000000000738
 41      -0.000000002142
 42       0.000000002070
 43      -0.000000001130
 44       0.000000001725
 45      -0.000000003464
 46       0.000000006003
 47      -0.000000010799
 48       0.000000022085
 49      -0.000000044188
 50       0.000000060403
 51      -0.000000023787
 52       0.000000008563
 53      -0.000000001238
 54      -0.027152092198
 55      -0.010872260477
 56      -0.177542385805
 57      -0.045900628852
 58      -0.018379563084
 59      -0.300135514211
 60      -0.068868776824
 61      -0.027576485662
 62      -0.450319881747
 63      -0.036048783129
 64      -0.014434679631
 65      -0.235716161419
 66      -0.001177492015
 67      -0.000471493241
 68      -0.007699398738
 69      -0.000662426668
 70      -0.000265247508
 71      -0.004331479683
 72       0.000459859613
 73       0.000184134111
 74       0.003006930001
 75      -0.000286902413
 76      -0.000114876101
 77      -0.001875991934
 78       0.000180349754
 79       0.000072205687
 80       0.001179256988
 81      -0.000121264615
 82      -0.000048537554
 83      -0.000792894985
 84       0.000086284370
 85       0.000034520331
 86       0.000564147304
 87      -0.000044118646
 88      -0.000017644717
 89      -0.000288416395
 90       0.000004480458
 91       0.000001797640
 92       0.000029312808
 93      -0.000000010303
 94       0.000001012283
 95      -0.000000854429
 96       0.000000134924
 97      -0.000000132889
 98       0.000000033827
 99      -0.000002282247
100       0.000001277142
101      -0.000000238641
102       0.000000223298
103      -0.000000062652
104       0.000003471560
105      -0.000001117233
106       0.000000279285
107      -0.000000241696
108       0.000000104938
109      -0.000006067025
110       0.000002363936
111      -0.000000530566
112       0.000000470756
113      -0.000000193862
114       0.000011249790
115      -0.000004478750
116       0.000000993845
117      -0.000000883932
118       0.000000397077
119      -0.000022930925
120       0.000008986327
121      -0.000002011271
122       0.000001784736
123      -0.000000963225
124       0.000056055510
125      -0.000022485289
126       0.000004969045
127      -0.000004423855
128       0.000002266021
129      -0.000132590304
130       0.000054021532
131      -0.000011837944
132       0.000010561770
133      -0.000002529863
134       0.000141678465
135      -0.000048766116
136       0.000011745425
137      -0.000010230162
138       0.000000168266
139      -0.000010787659
140       0.000005484647
141      -0.000001071804
142       0.000000987367
143       0.000000085001
144       0.000000004293
145       0.000000007932
146       0.000000238973
147      -0.000000103726
148      -0.000000014142
149      -0.000000019285
150      -0.000000020296
151      -0.000000005581
152       0.000000022566
153       0.000000606095
154      -0.000000725762
155      -0.000000014786
156       0.000000010453
157       0.000000048202
158       0.000000012930
159      -0.000000053148
160      -0.000001451955
161       0.000001737343
162       0.000000035173
163      -0.000000024060
164      -0.000000117727
165      -0.000000028798
166       0.000000116188
167       0.000003194829
168      -0.000003845832
169      -0.000000075904
170       0.000000055210
171       0.000000234712
172       0.000000078081
173      -0.000000349958
174      -0.000009632549
175       0.000011362345
176       0.000000239792
177      -0.000000137456
178      -0.000000412813
179      -0.000000251898
180       0.000001275195
181       0.000035093143
182      -0.000040540137
183      -0.000000914961
184       0.000000396212
185       0.000000702592
186       0.000000300021
187      -0.000001459505
188      -0.000040345066
189       0.000047010054
190       0.000001032289
191      -0.000000504398
192       0.000000693121
193      -0.000003336203
194       0.000006724795
195      -0.000028409155
196      -0.000066010328
197      -0.000187325005
198      -0.000003335950
199       0.000001370147
200      -0.000004700282
201       0.000048939251
202      -0.000018848707
203       0.000062006951
204       0.000045018582
205      -0.000014087462
206       0.000043820529
207       0.000000497605
208       0.000002403983
209      -0.000000877666
210       0.000000705004
211      -0.000000851674
212       0.000001916174
213       0.000002107557
214      -0.000001214845
215       0.000001197107
216      -0.000000816943
217       0.000000066417
218      -0.000000293639
219       0.000000189743
220      -0.000000135430
221       0.000000247405
222       0.000000013844
223      -0.000000210317
224      -0.000000618139
225       0.000002975307
226      -0.000005997435
227       0.000025336352
228       0.000058861652
229       0.000167062992
230       0.000002282026
231      -0.000001510907
232      -0.000004542594
233      -0.000036063267
234       0.000020041673
235       0.000059578904
236      -0.000038208900
237       0.000013572905
238       0.000041337412
239      -0.000000678123
240       0.000002133756
241      -0.000000916960
242      -0.000000386497
243       0.000000717426
244      -0.000002237659
245       0.000001333304
246      -0.000001435716
247      -0.000000714118
248       0.000000815159
249      -0.000000016621
250       0.000000264084
251      -0.000000229528
252      -0.000000034501
253       0.000000223141
254       0.000000033105
255       0.000000175153
256       0.000001113005
257      -0.000088447924
258      -0.000016679088
259      -0.000012177210
260       0.000006521319
261       0.000018684018
262       0.000000134894
263      -0.000010738667
264      -0.000002023963
265       0.000001926807
266       0.000002074640
267       0.000000086205
268      -0.000001250360
269       0.000099140834
270       0.000018693001
271       0.000016100177
272      -0.000006257091
273       0.000019491555
 Sym=     1a
 Ene= -6.93156563323674E+02
 Spin= Alpha
 Occup= 1.000000
  1      -0.000000758930
  2       0.000003653011
  3      -0.000007362981
  4       0.000031084694
  5       0.000072183537
  6       0.000204719227
  7      -0.000004512503
  8      -0.000004607144
  9       0.000000483035
 10       0.000061013749
 11       0.000064175056
 12      -0.000005692925
 13       0.000046863239
 14       0.000051896667
 15      -0.000002546844
 16       0.000001725814
 17       0.000000136806
 18       0.000000209673
 19       0.000000503993
 20      -0.000002470269
 21       0.000001173470
 22       0.000000387465
 23       0.000000290506
 24       0.000000022336
 25      -0.000003450313
 26      -0.000000044028
 27       0.000000234001
 28       0.000000187308
 29      -0.000000006511
 30       0.000000064138
 31      -0.000000418485
 32       0.000000116380
 33       0.000000000268
 34       0.000000000221
 35       0.000000000372
 36       0.000000000641
 37       0.000000001038