[Molden Format]
[Title]
 Molden file created by orca_2mkl for BaseName=/data01/Nikolayandreadi/heavy/cations/Pu_3+

[Atoms] AU
Pu   1  94          0.0415890928         1.5388172189        -3.6027401976 
[GTO]
  1 0
s   9 1.0 
 61522220.6225290000     17063.6754636881
 27964645.7375129983     -6251.6280422765
 12711202.6079610009      9671.6986576994
  5777819.3672550004       289.2210734849
  2626281.5305699999      4464.1627617163
  1193764.3320770001      2006.5541689788
   542620.1509440000      2788.3025657130
   246645.5231560000      2062.8458110195
   112111.6014350000      2113.6106705618
s   1 1.0 
    50959.8188340000      2417.3024864446
s   1 1.0 
    23163.5540150000      1338.1783156871
s   1 1.0 
    10528.8881890000       740.7931835960
s   1 1.0 
     4785.8582680000       410.0907438407
s   1 1.0 
     2175.3901220000       227.0193920667
s   1 1.0 
      988.8136920000       125.6741468865
s   1 1.0 
      449.4607690000        69.5711104117
s   1 1.0 
      204.3003500000        38.5134057612
s   1 1.0 
       92.8637950000        21.3203786259
s   1 1.0 
       42.2108160000        11.8026058245
s   1 1.0 
       19.1867350000         6.5337257345
s   1 1.0 
        8.7212430000         3.6169614730
s   1 1.0 
        3.9642010000         2.0022893726
s   1 1.0 
        1.8019100000         1.1084341915
s   1 1.0 
        0.8190500000         0.6136106705
s   1 1.0 
        0.3722950000         0.3396843160
s   1 1.0 
        0.1692250000         0.1880435685
s   1 1.0 
        0.0769210000         0.1040983350
s   1 1.0 
        0.0349640000         0.0576269887
s   1 1.0 
        0.0158930000         0.0319017498
p   8 1.0 
   879013.3813660000    139189.6694195126
   366255.5755690000     11873.5310695809
   152606.4898210000     40255.8773916045
    63586.0374250000     19887.9699123185
    26494.1822610000     19138.0697118639
    11039.2426090000     15284.2547358037
     4599.6844200000     14199.0747202623
     1916.5351750000     12759.1191870144
p   1 1.0 
      798.5563230000      6050.9286073116
p   1 1.0 
      332.7318010000      2025.6199998139
p   1 1.0 
      138.6382510000       678.1002843303
p   1 1.0 
       57.7659380000       227.0021001283
p   1 1.0 
       24.0691410000        75.9916416591
p   1 1.0 
       10.0288090000        25.4391026723
p   1 1.0 
        4.1786700000         8.5160397883
p   1 1.0 
        1.7411130000         2.8508461829
p   1 1.0 
        0.7254640000         0.9543549283
p   1 1.0 
        0.3022760000         0.3194807322
p   1 1.0 
        0.1259490000         0.1069506658
p   1 1.0 
        0.0524790000         0.0358032150
d   7 1.0 
    43223.8765000000     60764.0080375267
    17289.5506000000     29755.0800020834
     6915.8202400000     32871.2311092175
     2766.3280960000     30065.6700485816
     1106.5312380000     31905.5201083940
      442.6124950000     28787.6778141197
      177.0449980000     19499.0030796932
d   1 1.0 
       70.8179990000      4928.5761768021
d   1 1.0 
       28.3272000000       991.5770557751
d   1 1.0 
       11.3308800000       199.4947420861
d   1 1.0 
        4.5323520000        40.1362172392
d   1 1.0 
        1.8129410000         8.0749809665
d   1 1.0 
        0.7251760000         1.6245985936
d   1 1.0 
        0.2900710000         0.3268531162
d   1 1.0 
        0.1160280000         0.0657589689
d   1 1.0 
        0.0464110000         0.0132299043
f   6 1.0 
     4758.8680260000     68069.5976130275
     1830.3338560000     59148.9500505355
      703.9745600000     64844.9511990799
      270.7594460000     63667.3327460647
      104.1382490000     46445.9881466115
       40.0531730000     19036.1414891793
f   1 1.0 
       15.4050660000      2680.6684110836
f   1 1.0 
        5.9250260000       312.2864675901
f   1 1.0 
        2.2788560000        36.3800311270
f   1 1.0 
        0.8764830000         4.2381170555
f   1 1.0 
        0.3371090000         0.4937230016
f   1 1.0 
        0.1296570000         0.0575163091

[5D]
[7F]
[9G]
[MO]
 Sym=     1a
 Ene= -4.48940184906496E+03
 Spin= Alpha
 Occup= 1.000000
  1      -0.089707950018
  2      -0.067509910589
  3      -0.114800046287
  4      -0.180028597567
  5      -0.264902210916
  6      -0.299424233451
  7      -0.188404202445
  8      -0.030966073615
  9      -0.000917880002
 10       0.000656869949
 11      -0.000477148945
 12       0.000350342565
 13      -0.000247984438
 14       0.000166788589
 15      -0.000110288497
 16       0.000072499226
 17      -0.000046753125
 18       0.000028917142
 19      -0.000016339500
 20       0.000007483115
 21      -0.000002015884
 22      -0.000000000000
 23      -0.000000000000
 24       0.000000000000
 25       0.000000000000
 26       0.000000000000
 27      -0.000000000000
 28      -0.000000000000
 29      -0.000000000000
 30       0.000000000000
 31       0.000000000000
 32       0.000000000000
 33      -0.000000000000
 34      -0.000000000000
 35      -0.000000000000
 36       0.000000000000
 37       0.000000000000
 38       0.000000000000
 39      -0.000000000000
 40      -0.000000000000
 41      -0.000000000000
 42       0.000000000000
 43       0.000000000000
 44       0.000000000000
 45      -0.000000000000
 46      -0.000000000000
 47      -0.000000000000
 48       0.000000000000
 49       0.000000000000
 50       0.000000000000
 51      -0.000000000000
 52      -0.000000000000
 53      -0.000000000000
 54       0.000000000000
 55       0.000000000000
 56       0.000000000000
 57      -0.000000000000
 58      -0.000000000000
 59      -0.000000000000
 60      -0.000000000000
 61       0.000000019837
 62      -0.000000005927
 63      -0.000000019963
 64       0.000000033966
 65      -0.000000033126
 66      -0.000000015834
 67       0.000000004705
 68       0.000000015891
 69      -0.000000027130
 70       0.000000026361
 71       0.000000010520
 72      -0.000000003145
 73      -0.000000010588
 74       0.000000018010
 75      -0.000000017570
 76      -0.000000006073
 77       0.000000001810
 78       0.000000006103
 79      -0.000000010401
 80       0.000000010125
 81       0.000000003231
 82      -0.000000000960
 83      -0.000000003242
 84       0.000000005535
 85      -0.000000005379
 86      -0.000000001843
 87       0.000000000552
 88       0.000000001856
 89      -0.000000003155
 90       0.000000003081
 91       0.000000001084
 92      -0.000000000323
 93      -0.000000001089
 94       0.000000001858
 95      -0.000000001807
 96      -0.000000000560
 97       0.000000000167
 98       0.000000000563
 99      -0.000000000959
100       0.000000000935
101       0.000000000269
102      -0.000000000080
103      -0.000000000270
104       0.000000000460
105      -0.000000000448
106      -0.000000000091
107       0.000000000027
108       0.000000000091
109      -0.000000000155
110       0.000000000151
111      -0.000000000000
112      -0.000000000000
113      -0.000000000000
114       0.000000000000
115       0.000000000000
116      -0.000000000000
117       0.000000000001
118      -0.000000000000
119       0.000000000000
120       0.000000000000
121      -0.000000000000
122      -0.000000000000
123       0.000000000000
124      -0.000000000000
125       0.000000000000
126      -0.000000000000
127      -0.000000000000
128       0.000000000000
129      -0.000000000000
130       0.000000000000
131       0.000000000000
132      -0.000000000000
133      -0.000000000000
134       0.000000000000
135      -0.000000000000
136      -0.000000000000
137       0.000000000000
138      -0.000000000000
139       0.000000000000
140       0.000000000000
141      -0.000000000000
142       0.000000000000
143       0.000000000000
144      -0.000000000000
145       0.000000000000
146      -0.000000000000
147       0.000000000000
148      -0.000000000000
149      -0.000000000000
150      -0.000000000000
151       0.000000000000
152       0.000000000000
153       0.000000000000
154       0.000000000000
155       0.000000000000
156      -0.000000000000
157       0.000000000000
158      -0.000000000000
159       0.000000000000
 Sym=     1a
 Ene= -8.55087280949892E+02
 Spin= Alpha
 Occup= 1.000000
  1       0.038294620068
  2       0.031157338806
  3       0.051669253117
  4       0.088896706539
  5       0.140008697416
  6       0.175205959833
  7       0.061930301948
  8      -0.380740818120
  9      -0.603130805614
 10      -0.160405407903
 11       0.001798912730
 12      -0.001354122785
 13       0.000658595046
 14      -0.000299043066
 15       0.000145908264
 16      -0.000086504648
 17       0.000053611944
 18      -0.000032144376
 19       0.000017968394
 20      -0.000008187747
 21       0.000002200733
 22      -0.000000000000
 23      -0.000000000000
 24       0.000000000000
 25       0.000000000000
 26      -0.000000000000
 27      -0.000000000000
 28      -0.000000000000
 29      -0.000000000001
 30       0.000000000000
 31       0.000000000000
 32       0.000000000000
 33      -0.000000000000
 34      -0.000000000000
 35      -0.000000000001
 36       0.000000000000
 37       0.000000000000
 38       0.000000000001
 39       0.000000000000
 40      -0.000000000000
 41      -0.000000000001
 42      -0.000000000000
 43       0.000000000000
 44       0.000000000001
 45       0.000000000000
 46       0.000000000000
 47      -0.000000000002
 48      -0.000000000000
 49      -0.000000000000
 50       0.000000000005
 51      -0.000000000000
 52       0.000000000000
 53      -0.000000000007
 54       0.000000000000
 55      -0.000000000000
 56       0.000000000004
 57      -0.000000000000
 58      -0.000000000000
 59      -0.000000000001
 60      -0.000000000000
 61       0.000001386848
 62      -0.000000413107
 63      -0.000001393548
 64       0.000002375476
 65      -0.000002312056
 66       0.000000201046
 67      -0.000000059033
 68      -0.000000200407
 69       0.000000344728
 70      -0.000000332135
 71      -0.000000138995
 72       0.000000041253
 73       0.000000139125
 74      -0.000000237830
 75       0.000000230615
 76       0.000000050789
 77      -0.000000014905
 78      -0.000000050548
 79       0.000000087013
 80      -0.000000083711
 81      -0.000000015853
 82       0.000000004541
 83       0.000000015588
 84      -0.000000027231
 85       0.000000025766
 86       0.000000012442
 87      -0.000000003689
 88      -0.000000012451
 89       0.000000021296
 90      -0.000000020627
 91      -0.000000008219
 92       0.000000002395
 93       0.000000008164
 94      -0.000000014103
 95       0.000000013516
 96       0.000000004025
 97      -0.000000001180
 98      -0.000000004010
 99       0.000000006901
100      -0.000000006640
101      -0.000000001917
102       0.000000000559
103       0.000000001907
104      -0.000000003293
105       0.000000003157
106       0.000000000647
107      -0.000000000188
108      -0.000000000643
109       0.000000001111
110      -0.000000001063
111      -0.000000000000
112      -0.000000000000
113      -0.000000000000
114       0.000000000003
115       0.000000000000
116      -0.000000000000
117       0.000000000000
118       0.000000000000
119       0.000000000000
120       0.000000000000
121      -0.000000000002
122      -0.000000000000
123       0.000000000000
124      -0.000000000000
125      -0.000000000000
126      -0.000000000000
127      -0.000000000000
128       0.000000000002
129       0.000000000000
130       0.000000000000
131       0.000000000000
132       0.000000000000
133       0.000000000000
134       0.000000000000
135      -0.000000000001
136      -0.000000000000
137      -0.000000000000
138      -0.000000000000
139      -0.000000000000
140      -0.000000000000
141      -0.000000000000
142       0.000000000000
143       0.000000000000
144       0.000000000000
145       0.000000000000
146      -0.000000000000
147       0.000000000000
148       0.000000000000
149      -0.000000000000
150      -0.000000000000
151      -0.000000000000
152      -0.000000000000
153      -0.000000000000
154       0.000000000000
155      -0.000000000000
156      -0.000000000001
157       0.000000000000
158       0.000000000000
159       0.000000000000
 Sym=     1a
 Ene= -7.12776439794855E+02
 Spin= Alpha
 Occup= 1.000000
  1       0.000000000000
  2       0.000000000000
  3       0.000000000000
  4       0.000000000000
  5       0.000000000000
  6       0.000000000000
  7      -0.000000000000
  8      -0.000000000001
  9       0.000000000001
 10      -0.000000000003
 11       0.000000000002
 12      -0.000000000000
 13      -0.000000000001
 14      -0.000000000001
 15       0.000000000003
 16      -0.000000000004
 17       0.000000000005
 18      -0.000000000005
 19       0.000000000004
 20      -0.000000000002
 21       0.000000000001
 22       0.065750087125
 23       0.164116299248
 24       0.042203494941
 25       0.110372201325
 26       0.275495866546
 27       0.070845421568
 28       0.164871306919
 29       0.411529013826
 30       0.105827165620
 31       0.085876334872
 32       0.214352669329
 33       0.055122078726
 34       0.002735567832
 35       0.006828150432
 36       0.001755899261
 37       0.001581321089
 38       0.003947071848
 39       0.001015014129
 40      -0.001089807566
 41      -0.002720225581
 42      -0.000699522788
 43       0.000669215152
 44       0.001670402247
 45       0.000429554080
 46      -0.000401814992
 47      -0.001002955020
 48      -0.000257915962
 49       0.000237932456
 50       0.000593893921
 51       0.000152723460
 52      -0.000133034309
 53      -0.000332061817
 54      -0.000085391716
 55       0.000064312217
 56       0.000160527232
 57       0.000041280556
 58      -0.000020132294
 59      -0.000050251429
 60      -0.000012922463
 61      -0.000000000000
 62       0.000000000000
 63       0.000000000000
 64      -0.000000000000
 65       0.000000000000
 66       0.000000000000
 67      -0.000000000000
 68      -0.000000000000
 69      -0.000000000000
 70      -0.000000000000
 71      -0.000000000000
 72       0.000000000000
 73      -0.000000000000
 74       0.000000000000
 75      -0.000000000000
 76       0.000000000000
 77      -0.000000000000
 78       0.000000000000
 79      -0.000000000000
 80       0.000000000000
 81      -0.000000000000
 82       0.000000000000
 83       0.000000000000
 84       0.000000000000
 85      -0.000000000000
 86       0.000000000000
 87      -0.000000000000
 88      -0.000000000000
 89       0.000000000000
 90       0.000000000000
 91       0.000000000000
 92       0.000000000000
 93       0.000000000000
 94      -0.000000000000
 95      -0.000000000000
 96      -0.000000000000
 97      -0.000000000000
 98      -0.000000000000
 99      -0.000000000000
100      -0.000000000000
101       0.000000000000
102       0.000000000000
103       0.000000000000
104       0.000000000000
105       0.000000000000
106      -0.000000000000
107       0.000000000000
108      -0.000000000000
109      -0.000000000000
110      -0.000000000000
111      -0.000000550905
112      -0.000000376723
113      -0.000000616723
114      -0.000000571510
115       0.000000498011
116       0.000001273458
117       0.000000561745
118       0.000000363505
119       0.000000201068
120       0.000000449183
121       0.000000394136
122      -0.000000336698
123      -0.000000859520
124      -0.000000380639
125      -0.000000211026
126      -0.000000107476
127      -0.000000268932
128      -0.000000232112
129       0.000000197063
130       0.000000502770
131       0.000000222806
132       0.000000106959
133       0.000000060401
134       0.000000131106
135       0.000000115538
136      -0.000000098845
137      -0.000000252384
138      -0.000000111812
139      -0.000000052963
140      -0.000000028798
141      -0.000000065897
142      -0.000000057607
143       0.000000049139
144       0.000000125424
145       0.000000055577
146       0.000000024420
147       0.000000013357
148       0.000000030310
149       0.000000026532
150      -0.000000022645
151      -0.000000057801
152      -0.000000025604
153      -0.000000008477
154      -0.000000004634
155      -0.000000010523
156      -0.000000009211
157       0.000000007861
158       0.000000020065
159       0.000000008888
 Sym=     1a
 Ene= -7.12773440197691E+02
 Spin= Alpha
 Occup= 1.000000
  1       0.000000000000
  2      -0.000000000000
  3       0.000000000000
  4      -0.000000000001
  5       0.000000000001
  6      -0.000000000001
  7       0.000000000002
  8      -0.000000000001
  9       0.000000000000
 10       0.000000000002
 11      -0.000000000001
 12       0.000000000001
 13      -0.000000000000
 14       0.000000000001
 15      -0.000000000002
 16       0.000000000002
 17      -0.000000000002
 18       0.000000000001
 19      -0.000000000000
 20       0.000000000000
 21      -0.000000000000
 22      -0.053316714597
 23      -0.022934707936
 24       0.172249669037
 25      -0.089500821808
 26      -0.038499656705
 27       0.289149229299
 28      -0.133693992938
 29      -0.057509782601
 30       0.431923576414
 31      -0.069635646550
 32      -0.029954457153
 33       0.224971045848
 34      -0.002218108033
 35      -0.000954141214
 36       0.007166014645
 37      -0.001282618000
 38      -0.000551730422
 39       0.004143738876
 40       0.000883787264
 41       0.000380169620
 42      -0.002855241050
 43      -0.000542653262
 44      -0.000233427594
 45       0.001753143413
 46       0.000325857202
 47       0.000140170660
 48      -0.001052742970
 49      -0.000192953700
 50      -0.000083000905
 51       0.000623373231
 52       0.000107885293
 53       0.000046407910
 54      -0.000348543732
 55      -0.000052154732
 56      -0.000022434865
 57       0.000168495669
 58       0.000016326542
 59       0.000007023021
 60      -0.000052745965
 61       0.000000000001
 62      -0.000000000000
 63       0.000000000000
 64       0.000000000000
 65      -0.000000000000
 66      -0.000000000000
 67       0.000000000000
 68      -0.000000000000
 69       0.000000000000
 70      -0.000000000000
 71       0.000000000000
 72      -0.000000000000
 73       0.000000000000
 74      -0.000000000000
 75       0.000000000000
 76       0.000000000000
 77       0.000000000000
 78       0.000000000000
 79       0.000000000001
 80      -0.000000000001
 81      -0.000000000000
 82      -0.000000000000
 83      -0.000000000000
 84      -0.000000000000
 85       0.000000000001
 86       0.000000000000
 87       0.000000000000
 88       0.000000000000
 89       0.000000000000
 90      -0.000000000000
 91      -0.000000000000
 92      -0.000000000000
 93      -0.000000000000
 94      -0.000000000001
 95       0.000000000000
 96       0.000000000000
 97      -0.000000000000
 98       0.000000000000
 99       0.000000000001
100       0.000000000001
101      -0.000000000000
102       0.000000000000
103      -0.000000000000
104      -0.000000000001
105      -0.000000000001
106       0.000000000000
107      -0.000000000000
108       0.000000000000
109       0.000000000000
110       0.000000000000
111      -0.000000046865
112      -0.000000006964
113       0.000000637528
114      -0.000000996627
115       0.000000748626
116      -0.000000487883
117       0.000000137854
118       0.000000330560
119      -0.000000172600
120      -0.000000508463
121       0.000000540359
122      -0.000000422175
123       0.000000293229
124      -0.000000108497
125      -0.000000250468
126       0.000000134801
127       0.000000312393
128      -0.000000290953
129       0.000000231123
130      -0.000000164692
131       0.000000066413
132       0.000000089353
133      -0.000000046133
134      -0.000000147230
135       0.000000161923
136      -0.000000126041
137       0.000000086968
138      -0.000000031458
139      -0.000000051278
140       0.000000027002
141       0.000000074981
142      -0.000000077451
143       0.000000060737
144      -0.000000042399
145       0.000000015993
146       0.000000023146
147      -0.000000012155
148      -0.000000034428
149       0.000000035911
150      -0.000000028127
151       0.000000019600
152      -0.000000007345
153      -0.000000008050
154       0.000000004228
155       0.000000011955
156      -0.000000012460
157       0.000000009761
158      -0.000000006802
159       0.000000002551
 Sym=     1a
 Ene= -7.12773143279472E+02
 Spin= Alpha
 Occup= 1.000000
  1       0.000000000000
  2       0.000000000000
  3      -0.000000000000
  4       0.000000000000
  5      -0.000000000000
  6       0.000000000001
  7      -0.000000000001
  8       0.000000000001
  9      -0.000000000003
 10       0.000000000004
 11      -0.000000000004
 12       0.000000000005
 13      -0.000000000006
 14       0.000000000008
 15      -0.000000000011
 16       0.000000000012
 17      -0.000000000012
 18       0.000000000011
 19      -0.000000000009
 20       0.000000000005
 21      -0.000000000001
 22      -0.160850433343
 23       0.074687743198
 24      -0.039843763456
 25      -0.270013765469
 26       0.125375594975
 27      -0.066884274893
 28      -0.403339473218
 29       0.187282770244
 30      -0.099909973834
 31      -0.210082356551
 32       0.097547623649
 33      -0.052038850657
 34      -0.006691729203
 35       0.003107174618
 36      -0.001657587404
 37      -0.003869609080
 38       0.001796775430
 39      -0.000958529063
 40       0.002666304049
 41      -0.001238045212
 42       0.000660462008
 43      -0.001637119001
 44       0.000760163951
 45      -0.000405525701
 46       0.000983081519
 47      -0.000456474554
 48       0.000243516092
 49      -0.000582123547
 50       0.000270297536
 51      -0.000144196036
 52       0.000325479930
 53      -0.000151130186
 54       0.000080623631
 55      -0.000157346056
 56       0.000073060531
 57      -0.000038975707
 58       0.000049255696
 59      -0.000022870905
 60       0.000012200977
 61       0.000000000001
 62      -0.000000000000
 63       0.000000000000
 64       0.000000000000
 65      -0.000000000000
 66      -0.000000000001
 67       0.000000000000
 68      -0.000000000000
 69       0.000000000000
 70      -0.000000000000
 71       0.000000000000
 72      -0.000000000001
 73       0.000000000001
 74      -0.000000000001
 75       0.000000000001
 76       0.000000000000
 77       0.000000000001
 78      -0.000000000000
 79       0.000000000001
 80      -0.000000000002
 81      -0.000000000000
 82      -0.000000000001
 83       0.000000000000
 84      -0.000000000001
 85       0.000000000002
 86      -0.000000000000
 87       0.000000000000
 88       0.000000000001
 89      -0.000000000000
 90      -0.000000000001
 91       0.000000000000
 92      -0.000000000000
 93      -0.000000000001
 94       0.000000000000
 95       0.000000000001
 96      -0.000000000000
 97       0.000000000000
 98       0.000000000000
 99       0.000000000000
100      -0.000000000000
101       0.000000000000
102      -0.000000000000
103      -0.000000000000
104       0.000000000000
105       0.000000000000
106      -0.000000000000
107       0.000000000000
108       0.000000000000
109      -0.000000000000
110      -0.000000000000
111       0.000000272564
112       0.000000597777
113      -0.000000357872
114      -0.000000321962
115      -0.000000503834
116      -0.000000346191
117       0.000000974469
118      -0.000000072625
119      -0.000000099703
120       0.000000168838
121       0.000000111719
122       0.000000370872
123       0.000000326605
124      -0.000000858282
125       0.000000021273
126       0.000000000395
127      -0.000000084877
128      -0.000000045178
129      -0.000000222877
130      -0.000000208910
131       0.000000540359
132      -0.000000024134
133      -0.000000036989
134       0.000000051418
135       0.000000035504
136       0.000000108051
137       0.000000093416
138      -0.000000246804
139       0.000000009444
140       0.000000011412
141      -0.000000023877
142      -0.000000015223
143      -0.000000054419
144      -0.000000048565
145       0.000000127288
146      -0.000000004534
147      -0.000000005754
148       0.000000011123
149       0.000000007186
150       0.000000025030
151       0.000000022235
152      -0.000000058331
153       0.000000001569
154       0.000000001983
155      -0.000000003858
156      -0.000000002489
157      -0.000000008691
158      -0.000000007723
159       0.000000020260
 Sym=     1a
 Ene= -2.21461771248811E+02
 Spin= Alpha
 Occup= 1.000000
  1      -0.018801649889
  2      -0.015530636247
  3      -0.025519643855
  4      -0.045088739877
  5      -0.070849070330
  6      -0.093005267644
  7      -0.019391052064
  8       0.307593446008
  9       0.686450301414
 10      -0.236153830016
 11      -0.976550973994
 12      -0.124442665389
 13      -0.021152591219
 14       0.016144255329
 15      -0.011318004764
 16       0.007725655729
 17      -0.005073352733
 18       0.003163772504
 19      -0.001795424980
 20       0.000823958515
 21      -0.000222179827
 22      -0.000000000000
 23       0.000000000001
 24      -0.000000000000
 25      -0.000000000002
 26       0.000000000002
 27       0.000000000001
 28      -0.000000000000
 29       0.000000000003
 30       0.000000000000
 31      -0.000000000001
 32      -0.000000000001
 33       0.000000000001
 34       0.000000000005
 35      -0.000000000008
 36      -0.000000000003
 37       0.000000000002
 38       0.000000000001
 39      -0.000000000000
 40      -0.000000000000
 41      -0.000000000002
 42      -0.000000000001
 43       0.000000000001
 44       0.000000000004
 45       0.000000000002
 46       0.000000000000
 47      -0.000000000012
 48      -0.000000000001
 49      -0.000000000002
 50       0.000000000047
 51      -0.000000000000
 52       0.000000000001
 53      -0.000000000060
 54       0.000000000001
 55      -0.000000000000
 56       0.000000000035
 57      -0.000000000000
 58      -0.000000000000
 59      -0.000000000010
 60      -0.000000000000
 61       0.000009110045
 62      -0.000002706971
 63      -0.000009142090
 64       0.000015607898
 65      -0.000015165230
 66       0.000020282158
 67      -0.000006030190
 68      -0.000020353419
 69       0.000034738745
 70      -0.000033761493
 71       0.000007692264
 72      -0.000002296842
 73      -0.000007735336
 74       0.000013167687
 75      -0.000012834383
 76      -0.000000122136
 77       0.000000036493
 78       0.000000120935
 79      -0.000000206652
 80       0.000000199749
 81       0.000000616954
 82      -0.000000182914
 83      -0.000000616542
 84       0.000001054991
 85      -0.000001021847
 86      -0.000000158568
 87       0.000000047655
 88       0.000000159293
 89      -0.000000270431
 90       0.000000264102
 91       0.000000133644
 92      -0.000000039647
 93      -0.000000133594
 94       0.000000228577
 95      -0.000000221390
 96      -0.000000062224
 97       0.000000018552
 98       0.000000062304
 99      -0.000000106309
100       0.000000103267
101       0.000000029541
102      -0.000000008797
103      -0.000000029559
104       0.000000050477
105      -0.000000048993
106      -0.000000009927
107       0.000000002955
108       0.000000009935
109      -0.000000016970
110       0.000000016466
111      -0.000000000001
112      -0.000000000003
113      -0.000000000002
114       0.000000000024
115       0.000000000002
116      -0.000000000002
117      -0.000000000003
118       0.000000000000
119       0.000000000002
120       0.000000000002
121      -0.000000000018
122      -0.000000000001
123       0.000000000001
124       0.000000000001
125      -0.000000000001
126      -0.000000000001
127      -0.000000000001
128       0.000000000011
129       0.000000000002
130       0.000000000001
131      -0.000000000001
132       0.000000000001
133       0.000000000001
134       0.000000000001
135      -0.000000000006
136      -0.000000000002
137      -0.000000000001
138       0.000000000000
139      -0.000000000000
140      -0.000000000001
141      -0.000000000000
142       0.000000000003
143       0.000000000001
144       0.000000000000
145      -0.000000000000
146      -0.000000000001
147       0.000000000000
148       0.000000000001
149       0.000000000000
150       0.000000000000
151       0.000000000000
152       0.000000000000
153       0.000000000000
154       0.000000000002
155      -0.000000000000
156      -0.000000000006
157       0.000000000000
158       0.000000000001
159      -0.000000000000
 Sym=     1a
 Ene= -1.81426296215391E+02
 Spin= Alpha
 Occup= 1.000000
  1       0.000000000000
  2       0.000000000000
  3       0.000000000000
  4       0.000000000000
  5       0.000000000000
  6       0.000000000001
  7       0.000000000000
  8      -0.000000000002
  9      -0.000000000002
 10      -0.000000000002
 11       0.000000000011
 12      -0.000000000009
 13       0.000000000017
 14      -0.000000000017
 15       0.000000000013
 16      -0.000000000009
 17       0.000000000005
 18       0.000000000004
 19      -0.000000000007
 20       0.000000000002
 21       0.000000000000
 22       0.036899960633
 23       0.092124806645
 24       0.023684882953
 25       0.066515556584
 26       0.166063395577
 27       0.042694169435
 28       0.100632024660
 29       0.251238909765
 30       0.064592419252
 31      -0.046889639159
 32      -0.117065136219
 33      -0.030096932237
 34      -0.268603346697
 35      -0.670597824366
 36      -0.172407742016
 37      -0.089676158249
 38      -0.223886260264
 39      -0.057560201188
 40       0.002681030220
 41       0.006693483173
 42       0.001720865886
 43      -0.002014979979
 44      -0.005030628842
 45      -0.001293350244
 46       0.001144294078
 47       0.002856855511
 48       0.000734485051
 49      -0.000639194663
 50      -0.001595815641
 51      -0.000410278101
 52       0.000352241635
 53       0.000879410586
 54       0.000226092449
 55      -0.000169536213
 56      -0.000423265817
 57      -0.000108819778
 58       0.000052996698
 59       0.000132312172
 60       0.000034016863
 61       0.000000000001
 62      -0.000000000002
 63      -0.000000000001
 64       0.000000000001