[Molden Format]
[Title]
 Molden file created by orca_2mkl for BaseName=/data01/Nikolayandreadi/heavy/CC/UO2_CO3

[Atoms] AU
C    1   6         -0.5043886921         0.0343646697         0.0077951203 
O    2   8         -2.1194450222        -1.9470094022        -0.0408728866 
O    3   8          1.7541722989        -0.0955256561         0.0763430461 
O    4   8         -1.8676862580         2.2228565054        -0.0340547547 
U    5  92         -5.3830852034         0.3113796237        -0.1408412888 
O    6   8         -5.8476139022        -0.2603891434         3.0444905312 
O    7   8         -5.6551150599        -0.2656595896        -3.3474230791 
[GTO]
  1 0
s   6 1.0 
    13575.3496820000         0.7684632837
     2035.2333680000         1.0861436461
      463.2256235900         1.7703924000
      131.2001959800         2.7178496271
       42.8530158900         3.6101953426
       15.5841857700         3.6946140086
s   1 1.0 
        6.2067138500         2.8025694579
s   1 1.0 
        2.5764896500         1.4493770955
s   1 1.0 
        0.5769633900         0.4718145012
s   1 1.0 
        0.2297283100        -0.2364944648
s   1 1.0 
        0.0951644400         0.1221141848
p   4 1.0 
       34.6972322400         1.3669717438
        7.9582622800         1.4530900682
        2.3780826900         1.2707683638
        0.8143320800         0.8025478511
p   1 1.0 
        0.2888754700         0.3018758836
p   1 1.0 
        0.1005682400         0.0807265050
d   1 1.0 
        1.0970000000         3.3522135855
d   1 1.0 
        0.3180000000         0.3838994974
f   1 1.0 
        0.7610000000         3.0840084332

  2 0
s   6 1.0 
    27032.3826310000         1.4645050749
     4052.3871392000         1.8244031008
      922.3272271000         2.8547160967
      261.2407098900         4.3654874290
       85.3546413500         5.8940772662
       31.0350352400         6.2963020147
s   1 1.0 
       12.2608607300         4.6698272139
s   1 1.0 
        4.9987076000         2.3826123703
s   1 1.0 
        1.1703108200         0.8019291632
s   1 1.0 
        0.4647474100        -0.4011648063
s   1 1.0 
        0.1850453600         0.2010799377
p   4 1.0 
       63.2749548000         3.0898340730
       14.6270493800         3.3923831935
        4.4501223500         2.9482801524
        1.5275799600         1.7113350234
p   1 1.0 
        0.5293511800         0.6436057935
p   1 1.0 
        0.1747842100         0.1610897223
d   1 1.0 
        2.3140000000        12.3767310624
d   1 1.0 
        0.6450000000         1.3234257612
f   1 1.0 
        1.4280000000        12.7097950062

  3 0
s   6 1.0 
    27032.3826310000         1.4645050749
     4052.3871392000         1.8244031008
      922.3272271000         2.8547160967
      261.2407098900         4.3654874290
       85.3546413500         5.8940772662
       31.0350352400         6.2963020147
s   1 1.0 
       12.2608607300         4.6698272139
s   1 1.0 
        4.9987076000         2.3826123703
s   1 1.0 
        1.1703108200         0.8019291632
s   1 1.0 
        0.4647474100        -0.4011648063
s   1 1.0 
        0.1850453600         0.2010799377
p   4 1.0 
       63.2749548000         3.0898340730
       14.6270493800         3.3923831935
        4.4501223500         2.9482801524
        1.5275799600         1.7113350234
p   1 1.0 
        0.5293511800         0.6436057935
p   1 1.0 
        0.1747842100         0.1610897223
d   1 1.0 
        2.3140000000        12.3767310624
d   1 1.0 
        0.6450000000         1.3234257612
f   1 1.0 
        1.4280000000        12.7097950062

  4 0
s   6 1.0 
    27032.3826310000         1.4645050749
     4052.3871392000         1.8244031008
      922.3272271000         2.8547160967
      261.2407098900         4.3654874290
       85.3546413500         5.8940772662
       31.0350352400         6.2963020147
s   1 1.0 
       12.2608607300         4.6698272139
s   1 1.0 
        4.9987076000         2.3826123703
s   1 1.0 
        1.1703108200         0.8019291632
s   1 1.0 
        0.4647474100        -0.4011648063
s   1 1.0 
        0.1850453600         0.2010799377
p   4 1.0 
       63.2749548000         3.0898340730
       14.6270493800         3.3923831935
        4.4501223500         2.9482801524
        1.5275799600         1.7113350234
p   1 1.0 
        0.5293511800         0.6436057935
p   1 1.0 
        0.1747842100         0.1610897223
d   1 1.0 
        2.3140000000        12.3767310624
d   1 1.0 
        0.6450000000         1.3234257612
f   1 1.0 
        1.4280000000        12.7097950062

  5 0
s   9 1.0 
 58915269.2040619999     15878.5363952950
 26779667.8200279996     -5784.7557541551
 12172576.2818310000      9027.3946318877
  5532989.2190140001       325.6868040056
  2514995.0995519999      4208.1243710139
  1143179.5907050001      1939.1491289669
   519627.0866840000      2669.4311026285
   236194.1303110000      2005.5172738201
   107360.9683230000      2058.9530636601
s   1 1.0 
    48800.4401470000      2340.0648682401
s   1 1.0 
    22182.0182490000      1295.4208592531
s   1 1.0 
    10082.7355680000       717.1233692609
s   1 1.0 
     4583.0616220000       396.9875296292
s   1 1.0 
     2083.2098280000       219.7656713216
s   1 1.0 
      946.9135580000       121.6586080998
s   1 1.0 
      430.4152540000        67.3481752053
s   1 1.0 
      195.6432970000        37.2828258248
s   1 1.0 
       88.9287710000        20.6391501245
s   1 1.0 
       40.4221690000        11.4254891526
s   1 1.0 
       18.3737130000         6.3249600754
s   1 1.0 
        8.3516880000         3.5013924304
s   1 1.0 
        3.7962220000         1.9383124866
s   1 1.0 
        1.7255550000         1.0730172334
s   1 1.0 
        0.7843430000         0.5940043302
s   1 1.0 
        0.3565200000         0.3288311987
s   1 1.0 
        0.1620540000         0.1820350044
s   1 1.0 
        0.0736610000         0.1007716339
s   1 1.0 
        0.0334820000         0.0557851540
s   1 1.0 
        0.0152190000         0.0308815919
p   8 1.0 
   839813.6669700000    124700.6825327761
   349922.3612380000     10799.0830937165
   145800.9838490000     36359.2991195727
    60750.4099370000     18163.2607860982
    25312.6708070000     17573.6487977577
    10546.9461700000     14195.6918408552
     4394.5609040000     13322.9302572221
     1831.0670430000     12107.7084625556
p   1 1.0 
      762.9446010000      5715.5278197986
p   1 1.0 
      317.8935840000      1913.3406184205
p   1 1.0 
      132.4556600000       640.5134283167
p   1 1.0 
       55.1898580000       214.4194529751
p   1 1.0 
       22.9957740000        71.7794502225
p   1 1.0 
        9.5815730000        24.0290224861
p   1 1.0 
        3.9923220000         8.0439996005
p   1 1.0 
        1.6634670000         2.6928231053
p   1 1.0 
        0.6931110000         0.9014540144
p   1 1.0 
        0.2887960000         0.3017720791
p   1 1.0 
        0.1203320000         0.1010221266
p   1 1.0 
        0.0501380000         0.0338180721
d   7 1.0 
    41049.8202270000     53262.0337640016
    16419.9280910000     26338.4031025142
     6567.9712360000     29332.4246479962
     2627.1884950000     27101.6066256769
     1050.8753980000     28990.3214062957
      420.3501590000     26289.6282344813
      168.1400640000     17820.8132210096
d   1 1.0 
       67.2560250000      4502.9764563892
d   1 1.0 
       26.9024100000       905.9509006942
d   1 1.0 
       10.7609640000       182.2676717095
d   1 1.0 
        4.3043860000        36.6703201328
d   1 1.0 
        1.7217540000         7.3776748265
d   1 1.0 
        0.6887020000         1.4843111023
d   1 1.0 
        0.2754810000         0.2986279634
d   1 1.0 
        0.1101920000         0.0600803838
d   1 1.0 
        0.0440770000         0.0120876293
f   6 1.0 
     4391.9602590000     58042.2322349557
     1689.2154840000     50234.6786083959
      649.6982630000     55932.1636963999
      249.8839470000     54589.9728655915
       96.1092110000     39385.8448814677
       36.9650810000     15829.5183325708
f   1 1.0 
       14.2173390000      2237.9031973610
f   1 1.0 
        5.4682070000       260.7061095750
f   1 1.0 
        2.1031570000        30.3711607432
f   1 1.0 
        0.8089060000         3.5381049160
f   1 1.0 
        0.3111180000         0.4121749941
f   1 1.0 
        0.1196610000         0.0480168308

  6 0
s   6 1.0 
    27032.3826310000         1.4645050749
     4052.3871392000         1.8244031008
      922.3272271000         2.8547160967
      261.2407098900         4.3654874290
       85.3546413500         5.8940772662
       31.0350352400         6.2963020147
s   1 1.0 
       12.2608607300         4.6698272139
s   1 1.0 
        4.9987076000         2.3826123703
s   1 1.0 
        1.1703108200         0.8019291632
s   1 1.0 
        0.4647474100        -0.4011648063
s   1 1.0 
        0.1850453600         0.2010799377
p   4 1.0 
       63.2749548000         3.0898340730
       14.6270493800         3.3923831935
        4.4501223500         2.9482801524
        1.5275799600         1.7113350234
p   1 1.0 
        0.5293511800         0.6436057935
p   1 1.0 
        0.1747842100         0.1610897223
d   1 1.0 
        2.3140000000        12.3767310624
d   1 1.0 
        0.6450000000         1.3234257612
f   1 1.0 
        1.4280000000        12.7097950062

  7 0
s   6 1.0 
    27032.3826310000         1.4645050749
     4052.3871392000         1.8244031008
      922.3272271000         2.8547160967
      261.2407098900         4.3654874290
       85.3546413500         5.8940772662
       31.0350352400         6.2963020147
s   1 1.0 
       12.2608607300         4.6698272139
s   1 1.0 
        4.9987076000         2.3826123703
s   1 1.0 
        1.1703108200         0.8019291632
s   1 1.0 
        0.4647474100        -0.4011648063
s   1 1.0 
        0.1850453600         0.2010799377
p   4 1.0 
       63.2749548000         3.0898340730
       14.6270493800         3.3923831935
        4.4501223500         2.9482801524
        1.5275799600         1.7113350234
p   1 1.0 
        0.5293511800         0.6436057935
p   1 1.0 
        0.1747842100         0.1610897223
d   1 1.0 
        2.3140000000        12.3767310624
d   1 1.0 
        0.6450000000         1.3234257612
f   1 1.0 
        1.4280000000        12.7097950062

[5D]
[7F]
[9G]
[MO]
 Sym=     1a
 Ene= -4.26063485916805E+03
 Spin= Alpha
 Occup= 2.000000
  1      -0.000000009503
  2       0.000000052634
  3      -0.000000127079
  4       0.000000690261
  5      -0.000000560369
  6       0.000000363152
  7      -0.000000069990
  8       0.000000015683
  9      -0.000000002079
 10      -0.000000158416
 11      -0.000000192273
 12      -0.000000004941
 13       0.000000070938
 14       0.000000032512
 15       0.000000002083
 16      -0.000000068381
 17       0.000000008175
 18      -0.000000000412
 19       0.000000151641
 20      -0.000000013689
 21       0.000000556778
 22      -0.000000068729
 23       0.000000008211
 24      -0.000001300504
 25       0.000000272499
 26      -0.000000004900
 27      -0.000000065626
 28       0.000000014441
 29       0.000000005028
 30      -0.000000000706
 31      -0.000000049297
 32       0.000000000174
 33       0.000000023145
 34      -0.000000103252
 35       0.000000183130
 36      -0.000000381413
 37      -0.000001035229
 38      -0.000003851757
 39       0.000000038605
 40      -0.000000036930
 41       0.000000001191
 42       0.000000103736
 43       0.000000010912
 44       0.000000003177
 45       0.000000433067
 46      -0.000001580269
 47       0.000000013289
 48       0.000000010346
 49       0.000000000536
 50       0.000000002169
 51       0.000000037558
 52       0.000000070131
 53       0.000000048400
 54      -0.000000010478
 55      -0.000000003731
 56      -0.000000265925
 57      -0.000000119440
 58       0.000000006155
 59       0.000000081837
 60      -0.000000065868
 61      -0.000000003170
 62       0.000000004255
 63      -0.000000021003
 64      -0.000000027260
 65       0.000000009233
 66      -0.000000041615
 67       0.000000075780
 68      -0.000000215651
 69      -0.000001183627
 70      -0.000000398763
 71       0.000000001565
 72       0.000000001710
 73       0.000000000055
 74      -0.000000223703
 75      -0.000000006111
 76      -0.000000006840
 77       0.000000125108
 78      -0.000000026638
 79       0.000000003887
 80      -0.000000011284
 81       0.000000000734
 82      -0.000000000063
 83       0.000000004396
 84      -0.000000001901
 85       0.000000082386
 86      -0.000000006873
 87       0.000000000690
 88      -0.000000083494
 89       0.000000022305
 90      -0.000000003197
 91      -0.000000042874
 92       0.000000001854
 93       0.000000003449
 94      -0.000000000402
 95      -0.000000037341
 96       0.000000008362
 97       0.000000025361
 98      -0.000000113275
 99       0.000000201683
100      -0.000000444307
101      -0.000001117483
102      -0.000003107015
103       0.000000040579
104       0.000000039124
105       0.000000001250
106       0.000000120479
107      -0.000000116006
108       0.000000003640
109       0.000000367459
110       0.000001158083
111       0.000000010690
112       0.000000018792
113      -0.000000000612
114      -0.000000002088
115       0.000000013427
116      -0.000000068853
117       0.000000005417
118      -0.000000006357
119       0.000000004124
120      -0.000000203489
121       0.000000136768
122       0.000000006560
123       0.000000088268
124       0.000000059410
125      -0.000000004046
126      -0.000000004016
127      -0.000000006444
128       0.000000031409
129      -0.084983969004
130      -0.065169461620
131      -0.111711678689
132      -0.177550133821
133      -0.264431351900
134      -0.303181716300
135      -0.192924296813
136      -0.032220544089
137      -0.000869395955
138       0.000612588309
139      -0.000447942739
140       0.000333042219
141      -0.000238074898
142       0.000162159168
143      -0.000110466494
144       0.000077468816
145      -0.000055063217
146       0.000033805999
147      -0.000005811607
148       0.000003491240
149      -0.000001086616
150       0.000000268333
151      -0.000000046964
152       0.000000008253
153      -0.000000011841
154       0.000000045306
155      -0.000000000376
156       0.000000007017
157       0.000000021350
158       0.000000000193
159      -0.000000018662
160       0.000000002680
161      -0.000000000544
162       0.000000036984
163       0.000000000745
164       0.000000001079
165      -0.000000061225
166      -0.000000004772
167      -0.000000001779
168       0.000000098242
169       0.000000005701
170       0.000000002843
171      -0.000000150339
172      -0.000000019042
173      -0.000000004307
174       0.000000226300
175       0.000000075632
176       0.000000006342
177      -0.000000274619
178      -0.000000305591
179      -0.000000007039
180      -0.000000562464
181       0.000000831306
182      -0.000000019715
183       0.000003685824
184      -0.000002206856
185       0.000000118504
186      -0.000000609463
187       0.000000216745
188      -0.000000018821
189       0.000000009605
190      -0.000000000848
191      -0.000000000135
192      -0.000000011599
193      -0.000000004654
194      -0.000000056721
195       0.000000003582
196      -0.000000000087
197       0.000000020227
198      -0.000000000749
199      -0.000000033598
200       0.000000000262
201      -0.000000000013
202      -0.000000048268
203       0.000000002867
204       0.000000088975
205      -0.000000002073
206      -0.000000000161
207       0.000000082865
208      -0.000000012469
209      -0.000000191073
210       0.000000005320
211       0.000000000356
212      -0.000000149799
213       0.000000026132
214       0.000000338731
215      -0.000000009064
216      -0.000000000725
217       0.000000277232
218      -0.000000049932
219      -0.000000207277
220      -0.000000005397
221       0.000000002447
222      -0.000000520797
223       0.000000110246
224      -0.000001040297
225       0.000000079472
226      -0.000000007472
227       0.000000808918
228      -0.000000231085
229       0.000002619038
230      -0.000000102839
231       0.000000000604
232       0.000001062034
233      -0.000000121012
234      -0.000000428576
235       0.000000016302
236       0.000000000966
237      -0.000000194405
238       0.000000059964
239       0.000000001388
240       0.000000018987
241       0.000000011192
242      -0.000000000983
243      -0.000000000464
244       0.000000001430
245      -0.000000001470
246      -0.000000004181
247      -0.000000057152
248      -0.000000031689
249       0.000000003000
250       0.000000001281
251      -0.000000005405
252       0.000000005019
253       0.000000009305
254       0.000000127174
255       0.000000068567
256      -0.000000006754
257      -0.000000002717
258       0.000000014173
259      -0.000000012253
260      -0.000000018968
261      -0.000000259078
262      -0.000000133492
263       0.000000013871
264       0.000000005179
265      -0.000000032048
266       0.000000026623
267       0.000000037141
268       0.000000504787
269       0.000000195615
270      -0.000000027394
271      -0.000000006760
272       0.000000074170
273      -0.000000059046
274      -0.000000054072
275      -0.000000714025
276       0.000000247246
277       0.000000041212
278      -0.000000017330
279      -0.000000185330
280       0.000000138922
281      -0.000000033016
282      -0.000000469044
283      -0.000000727513
284       0.000000031600
285       0.000000032093
286      -0.000000212480
287       0.000000057032
288       0.000000027445
289      -0.000000128695
290       0.000000257202
291      -0.000001070822
292      -0.000002421745
293      -0.000005456826
294      -0.000000014739
295      -0.000000003243
296       0.000000102414
297       0.000000178186
298       0.000000082207
299      -0.000000785638
300      -0.000000291466
301      -0.000000091015
302       0.000001765822
303       0.000000013070
304       0.000000002696
305      -0.000000024665
306       0.000000022249
307      -0.000000008760
308       0.000000492872
309      -0.000000202305
310      -0.000000084309
311      -0.000000057318
312       0.000000062152
313      -0.000000098755
314       0.000000055798
315       0.000000017064
316      -0.000000002678
317      -0.000000015658
318       0.000000007196
319       0.000000000362
320       0.000000027411
321      -0.000000128539
322       0.000000256910
323      -0.000001069809
324      -0.000002418588
325      -0.000005450562
326      -0.000000008590
327      -0.000000003411
328      -0.000000103071
329       0.000000130589
330       0.000000083383
331       0.000000794074
332      -0.000000183340
333      -0.000000093619
334      -0.000001778266
335       0.000000012731
336      -0.000000002736
337       0.000000024171
338       0.000000022290
339      -0.000000010264
340       0.000000510578
341       0.000000146148
342       0.000000089139
343      -0.000000067702
344       0.000000057298
345       0.000000105819
346       0.000000040611
347       0.000000018883
348      -0.000000002448
349       0.000000014004
350       0.000000007227
351       0.000000001448
 Sym=     1a
 Ene= -8.04588753068662E+02
 Spin= Alpha
 Occup= 2.000000
  1       0.000000020941
  2      -0.000000118218
  3       0.000000290652
  4      -0.000001592414
  5       0.000001417466
  6      -0.000000899660
  7       0.000000164700
  8      -0.000000036806
  9       0.000000004892
 10       0.000000352878
 11       0.000000455059
 12       0.000000011028
 13      -0.000000141495
 14      -0.000000072527
 15      -0.000000004126
 16       0.000000159023
 17      -0.000000018865
 18       0.000000000931
 19      -0.000000347916
 20       0.000000030910
 21      -0.000001287964
 22       0.000000160067
 23      -0.000000019211
 24       0.000003044002
 25      -0.000000637819
 26       0.000000011129
 27       0.000000149083
 28      -0.000000033716
 29      -0.000000011832
 30       0.000000001701
 31       0.000000122946
 32      -0.000000001929
 33      -0.000000051355
 34       0.000000239844
 35      -0.000000432314
 36       0.000000916351
 37       0.000002447550
 38       0.000009096820
 39      -0.000000096497
 40       0.000000092349
 41      -0.000000002975
 42      -0.000000222078
 43      -0.000000033388
 44      -0.000000006805
 45      -0.000000999718
 46       0.000003736397
 47      -0.000000030675
 48      -0.000000026933
 49      -0.000000001108
 50      -0.000000005258
 51      -0.000000087870
 52      -0.000000170043
 53      -0.000000102551
 54       0.000000023873
 55       0.000000009671
 56       0.000000619940
 57       0.000000310251
 58      -0.000000015012
 59      -0.000000199599
 60       0.000000159498
 61       0.000000007656
 62      -0.000000010573
 63       0.000000053298
 64       0.000000073243
 65      -0.000000019848
 66       0.000000092678
 67      -0.000000171862
 68       0.000000497312
 69       0.000002751654
 70       0.000000967103
 71      -0.000000002240
 72      -0.000000004015
 73      -0.000000000085
 74       0.000000511542
 75       0.000000014522
 76       0.000000015643
 77      -0.000000310300
 78       0.000000062644
 79      -0.000000009633
 80       0.000000026661
 81      -0.000000001746
 82       0.000000000146
 83      -0.000000010765
 84       0.000000004438
 85      -0.000000193090
 86       0.000000016153
 87      -0.000000001609
 88       0.000000197065
 89      -0.000000051993
 90       0.000000007324
 91       0.000000098221
 92      -0.000000004207
 93      -0.000000007947
 94       0.000000000926
 95       0.000000086736
 96      -0.000000019369
 97      -0.000000056508
 98       0.000000264100
 99      -0.000000477782
100       0.000001070433
101       0.000002656297
102       0.000007377350
103      -0.000000102417
104      -0.000000096122
105      -0.000000003153
106      -0.000000255451
107       0.000000275886
108      -0.000000007705
109      -0.000000865776
110      -0.000002739886
111      -0.000000025202
112      -0.000000047505
113       0.000000001672
114       0.000000005062
115      -0.000000029673
116       0.000000166933
117       0.000000000633
118       0.000000013841
119      -0.000000010525
120       0.000000465206
121      -0.000000348913
122      -0.000000016035
123      -0.000000215737
124      -0.000000143649
125       0.000000009893
126       0.000000010013
127       0.000000015570
128      -0.000000084057
129       0.035877037110
130       0.029713824999
131       0.049764785031
132       0.086683055886
133       0.138726597870
134       0.177777337135
135       0.072230418503
136      -0.369140088411
137      -0.610967467772
138      -0.169952582169
139       0.002093945799
140      -0.001805217735
141       0.000970737223
142      -0.000507062661
143       0.000290172287
144      -0.000192739299
145       0.000133955719
146      -0.000081170535
147       0.000014210589
148      -0.000008422113
149       0.000002610106
150       0.000000300145
151       0.000001396040
152       0.000000008533
153       0.000000885855
154       0.000002138640
155       0.000000026103
156       0.000001909026
157       0.000003908959
158       0.000000056851
159       0.000001204304
160       0.000002633797
161       0.000000035398
162      -0.000000230154
163       0.000000260816
164      -0.000000007303
165       0.000000178305
166       0.000000141358
167       0.000000005272
168      -0.000000316629
169      -0.000000039439
170      -0.000000009355
171       0.000000363738
172       0.000000049139
173       0.000000010475
174      -0.000000455818
175      -0.000000220179
176      -0.000000012591
177       0.000000566845
178       0.000000748779
179       0.000000014185
180       0.000001405871
181      -0.000001947945
182       0.000000048803
183      -0.000008704332
184       0.000005202841
185      -0.000000279753
186       0.000001444142
187      -0.000000518009
188       0.000000044610
189       0.000001760306
190      -0.000000113797
191      -0.000000003173
192      -0.000000730976
193      -0.000000176141
194       0.000003140067
195      -0.000000159771
196       0.000000003783
197       0.000000130309
198      -0.000000033671
199      -0.000000673738
200       0.000000037256
201       0.000000002024
202       0.000000070743
203       0.000000095966
204       0.000000412768
205      -0.000000025387
206       0.000000000303
207      -0.000000124407
208      -0.000000005331
209       0.000000052174
210       0.000000006195
211      -0.000000001378
212       0.000000286765
213      -0.000000057812
214      -0.000000693524
215       0.000000016730
216       0.000000001596
217      -0.000000626707
218       0.000000108097
219       0.000000297896
220       0.000000021580
221      -0.000000006061
222       0.000001192518
223      -0.000000259036
224       0.000002479620
225      -0.000000187191
226       0.000000017663
227      -0.000001856754
228       0.000000542709
229      -0.000006212255
230       0.000000243338
231      -0.000000002055
232      -0.000002538078
233       0.000000267813
234       0.000001026991
235      -0.000000039151
236      -0.000000002298
237       0.000000463005
238      -0.000000143097
239       0.000000016322
240       0.000000225129
241       0.000000221585
242      -0.000000010439
243      -0.000000010358
244      -0.000000016188
245       0.000000002227
246       0.000000003942
247       0.000000052779
248      -0.000000010688
249      -0.000000002903
250       0.000000000780
251       0.000000008502
252      -0.000000007723
253      -0.000000020662
254      -0.000000281768
255      -0.000000134069
256       0.000000014685
257       0.000000005291
258      -0.000000023692
259       0.000000024778
260       0.000000042223
261       0.000000576191
262       0.000000278917
263      -0.000000030845
264      -0.000000010598
265       0.000000071240
266      -0.000000061494
267      -0.000000084048
268      -0.000001141641
269      -0.000000418252
270       0.000000062092
271       0.000000013923
272      -0.000000171761
273       0.000000139713
274       0.000000123913
275       0.000001635501
276      -0.000000597405
277      -0.000000094514
278       0.000000041509
279       0.000000428163
280      -0.000000327578
281       0.000000081070
282       0.000001148974
283       0.000001723486
284      -0.000000076900
285      -0.000000076219
286       0.000000509701
287      -0.000000128933
288      -0.000000057572
289       0.000000282700
290      -0.000000572954
291       0.000002470150
292       0.000005696516
293       0.000012931407
294       0.000000032057
295       0.000000005432
296      -0.000000223389
297      -0.000000407953
298      -0.000000192076
299       0.000001841218
300       0.000000673934
301       0.000000223013
302      -0.000004205514
303      -0.000000046532
304      -0.000000002197
305       0.000000061843
306      -0.000000052171
307       0.000000019970
308      -0.000001124646
309       0.000000462880
310       0.000000189001
311       0.000000135011
312      -0.000000143949
313       0.000000199869
314      -0.000000118896
315      -0.000000026501
316       0.000000007015
317       0.000000033312
318      -0.000000016547
319      -0.000000001014
320      -0.000000057498
321       0.000000282349
322      -0.000000572286
323       0.000002467807
324       0.000005689195
325       0.000012916802
326       0.000000018650
327       0.000000005801
328       0.000000224815
329      -0.000000296419
330      -0.000000194847
331      -0.000001860442
332       0.000000416473
333       0.000000229242
334       0.000004233973
335      -0.000000046068
336       0.000000003975
337      -0.000000060756
338      -0.000000052062
339       0.000000023733
340      -0.000001165167
341      -0.000000334483
342      -0.000000200149
343       0.000000158749
344      -0.000000133079
345      -0.000000215086
346      -0.000000088196
347      -0.000000030376
348       0.000000004045
349      -0.000000030710
350      -0.000000016707
351      -0.000000003354
 Sym=     1a
 Ene= -6.75245243597998E+02
 Spin= Alpha
 Occup= 2.000000
  1       0.000000566306
  2      -0.000002731354
  3       0.000005201733
  4      -0.000039412198
  5      -0.000095885079
  6      -0.000237639878
  7       0.000000585779
  8      -0.000000725636
  9       0.000000017055
 10       0.000128991143
 11       0.000002786249
 12       0.000003922062
 13       0.000158325691
 14      -0.000023442851
 15       0.000004831156
 16       0.000001128798
 17      -0.000000324799
 18       0.000000036481
 19      -0.000008689169
 20       0.000001173764
 21      -0.000038988357
 22       0.000004199630
 23      -0.000000538729
 24       0.000070612192
 25      -0.000017489829
 26       0.000000202085
 27       0.000002677165
 28      -0.000000526363
 29       0.000000208114
 30      -0.000000055593
 31      -0.000009085050
 32       0.000002274011
 33       0.000001209920
 34      -0.000005767041
 35       0.000011035309
 36      -0.000029292254
 37      -0.000022284411
 38      -0.000045455481
 39       0.000005344976
 40      -0.000005887504
 41       0.000000163850
 42      -0.000015561380
 43       0.000012215144
 44      -0.000000474582
 45       0.000024087440
 46       0.000015701032
 47       0.000000686801
 48       0.000003875408
 49      -0.000000211840
 50       0.000000133445
 51      -0.000000159676
 52       0.000004326308
 53      -0.000016725017
 54       0.000001149618
 55      -0.000000706558
 56       0.000008462411
 57      -0.000023020775
 58       0.000000351641
 59       0.000004673833
 60      -0.000003715056
 61      -0.000000075843
 62       0.000000369227
 63      -0.000004013431
 64      -0.000005041785
 65      -0.000000619913
 66       0.000002965469
 67      -0.000005755536
 68       0.000023145365
 69       0.000109275091
 70      -0.000104409888
 71      -0.000006176529
 72       0.000000263193
 73      -0.000000187705
 74       0.000065173566
 75      -0.000002354912