[Molden Format]
[Title]
 Molden file created by orca_2mkl for BaseName=/data01/Nikolayandreadi/heavy/cations/Pu_6+

[Atoms] AU
Pu   1  94          0.0415890928         1.5388172189        -3.6027401976 
[GTO]
  1 0
s   9 1.0 
 61522220.6225290000     17063.6754636881
 27964645.7375129983     -6251.6280422765
 12711202.6079610009      9671.6986576994
  5777819.3672550004       289.2210734849
  2626281.5305699999      4464.1627617163
  1193764.3320770001      2006.5541689788
   542620.1509440000      2788.3025657130
   246645.5231560000      2062.8458110195
   112111.6014350000      2113.6106705618
s   1 1.0 
    50959.8188340000      2417.3024864446
s   1 1.0 
    23163.5540150000      1338.1783156871
s   1 1.0 
    10528.8881890000       740.7931835960
s   1 1.0 
     4785.8582680000       410.0907438407
s   1 1.0 
     2175.3901220000       227.0193920667
s   1 1.0 
      988.8136920000       125.6741468865
s   1 1.0 
      449.4607690000        69.5711104117
s   1 1.0 
      204.3003500000        38.5134057612
s   1 1.0 
       92.8637950000        21.3203786259
s   1 1.0 
       42.2108160000        11.8026058245
s   1 1.0 
       19.1867350000         6.5337257345
s   1 1.0 
        8.7212430000         3.6169614730
s   1 1.0 
        3.9642010000         2.0022893726
s   1 1.0 
        1.8019100000         1.1084341915
s   1 1.0 
        0.8190500000         0.6136106705
s   1 1.0 
        0.3722950000         0.3396843160
s   1 1.0 
        0.1692250000         0.1880435685
s   1 1.0 
        0.0769210000         0.1040983350
s   1 1.0 
        0.0349640000         0.0576269887
s   1 1.0 
        0.0158930000         0.0319017498
p   8 1.0 
   879013.3813660000    139189.6694195126
   366255.5755690000     11873.5310695809
   152606.4898210000     40255.8773916045
    63586.0374250000     19887.9699123185
    26494.1822610000     19138.0697118639
    11039.2426090000     15284.2547358037
     4599.6844200000     14199.0747202623
     1916.5351750000     12759.1191870144
p   1 1.0 
      798.5563230000      6050.9286073116
p   1 1.0 
      332.7318010000      2025.6199998139
p   1 1.0 
      138.6382510000       678.1002843303
p   1 1.0 
       57.7659380000       227.0021001283
p   1 1.0 
       24.0691410000        75.9916416591
p   1 1.0 
       10.0288090000        25.4391026723
p   1 1.0 
        4.1786700000         8.5160397883
p   1 1.0 
        1.7411130000         2.8508461829
p   1 1.0 
        0.7254640000         0.9543549283
p   1 1.0 
        0.3022760000         0.3194807322
p   1 1.0 
        0.1259490000         0.1069506658
p   1 1.0 
        0.0524790000         0.0358032150
d   7 1.0 
    43223.8765000000     60764.0080375267
    17289.5506000000     29755.0800020834
     6915.8202400000     32871.2311092175
     2766.3280960000     30065.6700485816
     1106.5312380000     31905.5201083940
      442.6124950000     28787.6778141197
      177.0449980000     19499.0030796932
d   1 1.0 
       70.8179990000      4928.5761768021
d   1 1.0 
       28.3272000000       991.5770557751
d   1 1.0 
       11.3308800000       199.4947420861
d   1 1.0 
        4.5323520000        40.1362172392
d   1 1.0 
        1.8129410000         8.0749809665
d   1 1.0 
        0.7251760000         1.6245985936
d   1 1.0 
        0.2900710000         0.3268531162
d   1 1.0 
        0.1160280000         0.0657589689
d   1 1.0 
        0.0464110000         0.0132299043
f   6 1.0 
     4758.8680260000     68069.5976130275
     1830.3338560000     59148.9500505355
      703.9745600000     64844.9511990799
      270.7594460000     63667.3327460647
      104.1382490000     46445.9881466115
       40.0531730000     19036.1414891793
f   1 1.0 
       15.4050660000      2680.6684110836
f   1 1.0 
        5.9250260000       312.2864675901
f   1 1.0 
        2.2788560000        36.3800311270
f   1 1.0 
        0.8764830000         4.2381170555
f   1 1.0 
        0.3371090000         0.4937230016
f   1 1.0 
        0.1296570000         0.0575163091

[5D]
[7F]
[9G]
[MO]
 Sym=     1a
 Ene= -4.49140261570476E+03
 Spin= Alpha
 Occup= 1.000000
  1       0.089707763160
  2       0.067509750256
  3       0.114799789930
  4       0.180028142834
  5       0.264901502777
  6       0.299423512377
  7       0.188405754730
  8       0.030967718312
  9       0.000917786499
 10      -0.000657080781
 11       0.000477105191
 12      -0.000350172158
 13       0.000247954109
 14      -0.000166832121
 15       0.000110284124
 16      -0.000072471384
 17       0.000046741699
 18      -0.000028911812
 19       0.000016335646
 20      -0.000007481210
 21       0.000002015348
 22       0.000000000000
 23       0.000000000000
 24      -0.000000000000
 25      -0.000000000000
 26      -0.000000000000
 27       0.000000000000
 28       0.000000000000
 29       0.000000000000
 30      -0.000000000000
 31      -0.000000000000
 32      -0.000000000000
 33       0.000000000000
 34       0.000000000000
 35       0.000000000000
 36      -0.000000000000
 37      -0.000000000000
 38      -0.000000000000
 39       0.000000000000
 40       0.000000000000
 41       0.000000000000
 42      -0.000000000000
 43      -0.000000000000
 44      -0.000000000000
 45       0.000000000000
 46       0.000000000000
 47       0.000000000000
 48      -0.000000000000
 49      -0.000000000000
 50      -0.000000000000
 51       0.000000000000
 52      -0.000000000000
 53       0.000000000000
 54      -0.000000000000
 55      -0.000000000000
 56      -0.000000000000
 57       0.000000000000
 58       0.000000000000
 59       0.000000000000
 60       0.000000000000
 61       0.000000001030
 62       0.000000052652
 63      -0.000000002970
 64      -0.000000051544
 65       0.000000001286
 66      -0.000000000788
 67      -0.000000042620
 68       0.000000002424
 69       0.000000041804
 70      -0.000000001027
 71       0.000000000548
 72       0.000000028067
 73      -0.000000001583
 74      -0.000000027479
 75       0.000000000686
 76      -0.000000000309
 77      -0.000000016323
 78       0.000000000925
 79       0.000000015997
 80      -0.000000000396
 81       0.000000000161
 82       0.000000008746
 83      -0.000000000498
 84      -0.000000008580
 85       0.000000000211
 86      -0.000000000096
 87      -0.000000004881
 88       0.000000000275
 89       0.000000004776
 90      -0.000000000120
 91       0.000000000054
 92       0.000000002875
 93      -0.000000000163
 94      -0.000000002818
 95       0.000000000070
 96      -0.000000000029
 97      -0.000000001499
 98       0.000000000085
 99       0.000000001469
100      -0.000000000036
101       0.000000000014
102       0.000000000719
103      -0.000000000041
104      -0.000000000705
105       0.000000000017
106      -0.000000000005
107      -0.000000000243
108       0.000000000014
109       0.000000000238
110      -0.000000000006
111       0.000000000000
112       0.000000000000
113       0.000000000000
114      -0.000000000000
115      -0.000000000000
116       0.000000000000
117      -0.000000000001
118      -0.000000000000
119      -0.000000000000
120      -0.000000000000
121       0.000000000000
122       0.000000000000
123      -0.000000000000
124       0.000000000000
125      -0.000000000000
126       0.000000000000
127       0.000000000000
128      -0.000000000000
129      -0.000000000000
130      -0.000000000000
131      -0.000000000000
132       0.000000000000
133      -0.000000000000
134      -0.000000000000
135       0.000000000000
136       0.000000000000
137      -0.000000000000
138       0.000000000000
139      -0.000000000000
140      -0.000000000000
141      -0.000000000000
142      -0.000000000000
143      -0.000000000000
144       0.000000000000
145      -0.000000000000
146      -0.000000000000
147      -0.000000000000
148       0.000000000000
149       0.000000000000
150       0.000000000000
151      -0.000000000000
152      -0.000000000000
153      -0.000000000000
154      -0.000000000000
155      -0.000000000000
156       0.000000000000
157      -0.000000000000
158       0.000000000000
159       0.000000000000
 Sym=     1a
 Ene= -8.57133851020637E+02
 Spin= Alpha
 Occup= 1.000000
  1      -0.038293754808
  2      -0.031156615508
  3      -0.051667979004
  4      -0.088894697661
  5      -0.140004682829
  6      -0.175202515013
  7      -0.061931202026
  8       0.380711003817
  9       0.603118209046
 10       0.160455784136
 11      -0.001808932615
 12       0.001354100006
 13      -0.000661337556
 14       0.000302594742
 15      -0.000147439270
 16       0.000087020694
 17      -0.000054115878
 18       0.000032509143
 19      -0.000018163072
 20       0.000008276047
 21      -0.000002224415
 22       0.000000000000
 23       0.000000000000
 24      -0.000000000000
 25      -0.000000000000
 26       0.000000000000
 27       0.000000000000
 28       0.000000000001
 29       0.000000000001
 30      -0.000000000000
 31      -0.000000000000
 32      -0.000000000000
 33       0.000000000000
 34       0.000000000000
 35       0.000000000001
 36      -0.000000000000
 37      -0.000000000000
 38      -0.000000000001
 39      -0.000000000000
 40       0.000000000000
 41       0.000000000001
 42       0.000000000000
 43      -0.000000000000
 44      -0.000000000001
 45      -0.000000000000
 46      -0.000000000000
 47       0.000000000002
 48       0.000000000000
 49       0.000000000000
 50      -0.000000000005
 51       0.000000000000
 52      -0.000000000000
 53       0.000000000007
 54      -0.000000000000
 55       0.000000000000
 56      -0.000000000004
 57       0.000000000000
 58       0.000000000000
 59       0.000000000001
 60       0.000000000000
 61       0.000000070409
 62       0.000003689491
 63      -0.000000208942
 64      -0.000003614974
 65       0.000000089478
 66       0.000000008846
 67       0.000000563123
 68      -0.000000032688
 69      -0.000000555091
 70       0.000000013173
 71      -0.000000006616
 72      -0.000000376775
 73       0.000000021557
 74       0.000000370168
 75      -0.000000009034
 76       0.000000002256
 77       0.000000142207
 78      -0.000000008243
 79      -0.000000140138
 80       0.000000003328
 81      -0.000000000576
 82      -0.000000047005
 83       0.000000002800
 84       0.000000046621
 85      -0.000000001043
 86       0.000000000588
 87       0.000000033080
 88      -0.000000001891
 89      -0.000000032486
 90       0.000000000790
 91      -0.000000000345
 92      -0.000000021948
 93       0.000000001275
 94       0.000000021626
 95      -0.000000000511
 96       0.000000000178
 97       0.000000011035
 98      -0.000000000639
 99      -0.000000010862
100       0.000000000259
101      -0.000000000085
102      -0.000000005267
103       0.000000000306
104       0.000000005186
105      -0.000000000123
106       0.000000000029
107       0.000000001773
108      -0.000000000103
109      -0.000000001746
110       0.000000000041
111       0.000000000000
112       0.000000000000
113       0.000000000000
114      -0.000000000003
115      -0.000000000000
116       0.000000000000
117      -0.000000000000
118      -0.000000000000
119      -0.000000000000
120      -0.000000000000
121       0.000000000002
122       0.000000000000
123      -0.000000000000
124       0.000000000000
125       0.000000000000
126       0.000000000000
127       0.000000000000
128      -0.000000000002
129      -0.000000000000
130      -0.000000000000
131      -0.000000000000
132      -0.000000000000
133      -0.000000000000
134      -0.000000000000
135       0.000000000001
136       0.000000000000
137       0.000000000000
138       0.000000000000
139       0.000000000000
140       0.000000000000
141       0.000000000000
142      -0.000000000000
143      -0.000000000000
144      -0.000000000000
145      -0.000000000000
146       0.000000000000
147      -0.000000000000
148      -0.000000000000
149       0.000000000000
150       0.000000000000
151       0.000000000000
152       0.000000000000
153       0.000000000000
154      -0.000000000000
155       0.000000000000
156       0.000000000001
157      -0.000000000000
158      -0.000000000000
159      -0.000000000000
 Sym=     1a
 Ene= -7.14819938556590E+02
 Spin= Alpha
 Occup= 1.000000
  1       0.000000000000
  2       0.000000000000
  3      -0.000000000000
  4       0.000000000000
  5      -0.000000000000
  6       0.000000000001
  7      -0.000000000001
  8       0.000000000001
  9      -0.000000000000
 10      -0.000000000001
 11       0.000000000000
 12       0.000000000002
 13      -0.000000000003
 14       0.000000000003
 15      -0.000000000002
 16       0.000000000002
 17      -0.000000000001
 18       0.000000000001
 19      -0.000000000001
 20       0.000000000000
 21      -0.000000000000
 22      -0.006978634269
 23       0.180719982107
 24      -0.018091065895
 25      -0.011714759470
 26       0.303367541269
 27      -0.030368762307
 28      -0.017499554057
 29       0.453171636761
 30      -0.045364977563
 31      -0.009116389651
 32       0.236079680636
 33      -0.023632876799
 34      -0.000290574828
 35       0.007524774832
 36      -0.000753271502
 37      -0.000167600308
 38       0.004340210281
 39      -0.000434478910
 40       0.000115600048
 41      -0.002993600923
 42       0.000299675918
 43      -0.000071021540
 44       0.001839186953
 45      -0.000184112736
 46       0.000042618190
 47      -0.001103648383
 48       0.000110481277
 49      -0.000025227439
 50       0.000653294331
 51      -0.000065398356
 52       0.000014102516
 53      -0.000365201209
 54       0.000036558651
 55      -0.000006816166
 56       0.000176512605
 57      -0.000017669883
 58       0.000002133411
 59      -0.000055247181
 60       0.000005530547
 61      -0.000000000000
 62       0.000000000000
 63       0.000000000000
 64       0.000000000000
 65       0.000000000000
 66       0.000000000000
 67      -0.000000000000
 68      -0.000000000000
 69      -0.000000000000
 70      -0.000000000000
 71      -0.000000000000
 72       0.000000000000
 73       0.000000000000
 74      -0.000000000000
 75       0.000000000000
 76       0.000000000000
 77       0.000000000000
 78      -0.000000000000
 79       0.000000000000
 80      -0.000000000000
 81      -0.000000000000
 82      -0.000000000000
 83       0.000000000000
 84      -0.000000000000
 85       0.000000000000
 86       0.000000000000
 87       0.000000000000
 88      -0.000000000000
 89      -0.000000000000
 90      -0.000000000000
 91       0.000000000000
 92      -0.000000000000
 93       0.000000000000
 94       0.000000000000
 95       0.000000000000
 96      -0.000000000000
 97       0.000000000000
 98      -0.000000000000
 99      -0.000000000000
100      -0.000000000001
101       0.000000000000
102      -0.000000000000
103       0.000000000000
104       0.000000000000
105       0.000000000000
106      -0.000000000000
107       0.000000000000
108      -0.000000000000
109      -0.000000000000
110      -0.000000000000
111       0.000000203171
112      -0.000000043255
113      -0.000000678317
114       0.000000280682
115       0.000000652055
116      -0.000000111823
117       0.000001437795
118      -0.000000073163
119       0.000000115852
120       0.000000277567
121      -0.000000114527
122      -0.000000820893
123       0.000000023144
124      -0.000001047705
125       0.000000030483
126      -0.000000084420
127      -0.000000127655
128       0.000000052566
129       0.000000553311
130      -0.000000003469
131       0.000000627575
132      -0.000000023033
133       0.000000031864
134       0.000000085847
135      -0.000000035438
136      -0.000000231478
137       0.000000008074
138      -0.000000305457
139       0.000000010062
140      -0.000000017665
141      -0.000000038745
142       0.000000015983
143       0.000000123008
144      -0.000000002887
145       0.000000153227
146      -0.000000004704
147       0.000000008037
148       0.000000018040
149      -0.000000007443
150      -0.000000056214
151       0.000000001387
152      -0.000000070466
153       0.000000001633
154      -0.000000002789
155      -0.000000006262
156       0.000000002584
157       0.000000019509
158      -0.000000000482
159       0.000000024457
 Sym=     1a
 Ene= -7.14819348215278E+02
 Spin= Alpha
 Occup= 1.000000
  1       0.000000000000
  2      -0.000000000000
  3       0.000000000000
  4      -0.000000000001
  5       0.000000000001
  6      -0.000000000001
  7       0.000000000001
  8      -0.000000000002
  9       0.000000000002
 10      -0.000000000002
 11       0.000000000003
 12      -0.000000000003
 13       0.000000000003
 14      -0.000000000005
 15       0.000000000007
 16      -0.000000000008
 17       0.000000000008
 18      -0.000000000008
 19       0.000000000007
 20      -0.000000000004
 21       0.000000000001
 22       0.094998742846
 23       0.019062450920
 24       0.153777799388
 25       0.159470679269
 26       0.031999391830
 27       0.258140785770
 28       0.238217885387
 29       0.047800808951
 30       0.385611652219
 31       0.124099070966
 32       0.024901723602
 33       0.200883521937
 34       0.003955469334
 35       0.000793704465
 36       0.006402857069
 37       0.002281630402
 38       0.000457832120
 39       0.003693355202
 40      -0.001573666933
 41      -0.000315772104
 42      -0.002547349898
 43       0.000966799619
 44       0.000193998059
 45       0.001564992487
 46      -0.000580162535
 47      -0.000116415440
 48      -0.000939129470
 49       0.000343421689
 50       0.000068911013
 51       0.000555908753
 52      -0.000191977769
 53      -0.000038522267
 54      -0.000310761162
 55       0.000092788606
 56       0.000018618965
 57       0.000150200179
 58      -0.000029042174
 59      -0.000005827603
 60      -0.000047011589
 61      -0.000000000000
 62       0.000000000000
 63      -0.000000000000
 64       0.000000000000
 65      -0.000000000000
 66       0.000000000000
 67       0.000000000000
 68      -0.000000000000
 69       0.000000000000
 70       0.000000000000
 71      -0.000000000000
 72       0.000000000000
 73      -0.000000000000
 74       0.000000000000
 75      -0.000000000001
 76       0.000000000000
 77      -0.000000000000
 78       0.000000000000
 79      -0.000000000000
 80       0.000000000001
 81      -0.000000000000
 82       0.000000000000
 83      -0.000000000000
 84       0.000000000000
 85      -0.000000000001
 86       0.000000000000
 87      -0.000000000000
 88      -0.000000000000
 89       0.000000000000
 90       0.000000000001
 91      -0.000000000000
 92       0.000000000000
 93       0.000000000000
 94      -0.000000000000
 95      -0.000000000000
 96       0.000000000000
 97      -0.000000000000
 98      -0.000000000000
 99       0.000000000000
100       0.000000000001
101      -0.000000000000
102       0.000000000000
103       0.000000000000
104      -0.000000000001
105      -0.000000000000
106       0.000000000000
107      -0.000000000000
108      -0.000000000000
109       0.000000000000
110       0.000000000000
111      -0.000000167839
112       0.000001828023
113       0.000000089195
114       0.000000053980
115       0.000000275884
116       0.000000518414
117       0.000000027051
118       0.000000305791
119      -0.000001118985
120       0.000000064725
121       0.000000225664
122      -0.000000098528
123      -0.000000530736
124      -0.000000087109
125      -0.000000215882
126       0.000000632272
127      -0.000000061897
128      -0.000000182418
129       0.000000040742
130       0.000000345180
131       0.000000064194
132       0.000000084948
133      -0.000000330931
134       0.000000015918
135       0.000000059748
136      -0.000000031038
137      -0.000000151194
138      -0.000000023851
139      -0.000000046262
140       0.000000161741
141      -0.000000010567
142      -0.000000035246
143       0.000000013526
144       0.000000078881
145       0.000000013304
146       0.000000021090
147      -0.000000074613
148       0.000000004727
149       0.000000015939
150      -0.000000006327
151      -0.000000036124
152      -0.000000006050
153      -0.000000007319
154       0.000000025898
155      -0.000000001640
156      -0.000000005532
157       0.000000002197
158       0.000000012538
159       0.000000002100
 Sym=     1a
 Ene= -7.14815473050618E+02
 Spin= Alpha
 Occup= 1.000000
  1       0.000000000000
  2      -0.000000000000
  3       0.000000000000
  4      -0.000000000000
  5       0.000000000001
  6      -0.000000000001
  7       0.000000000001
  8      -0.000000000000
  9      -0.000000000002
 10       0.000000000004
 11      -0.000000000004
 12       0.000000000003
 13      -0.000000000004
 14       0.000000000006
 15      -0.000000000009
 16       0.000000000010
 17      -0.000000000010
 18       0.000000000009
 19      -0.000000000006
 20       0.000000000004
 21      -0.000000000001
 22      -0.154798334475
 23       0.003551289799
 24       0.095188973571
 25      -0.259854117372
 26       0.005961416062
 27       0.159790134661
 28      -0.388170493950
 29       0.008905172727
 30       0.238694757370
 31      -0.202211289957
 32       0.004639009240
 33       0.124344265085
 34      -0.006444680197
 35       0.000147850037
 36       0.003962978642
 37      -0.003719124193
 38       0.000085321853
 39       0.002286973020
 40       0.002564524903
 41      -0.000058833760
 42      -0.001576983981
 43      -0.001575348576
 44       0.000036140693
 45       0.000968717237
 46       0.000945462771
 47      -0.000021690240
 48      -0.000581386305
 49      -0.000559656514
 50       0.000012839306
 51       0.000344145370
 52       0.000312855854
 53      -0.000007177355
 54      -0.000192382099
 55      -0.000151213071
 56       0.000003469041
 57       0.000092984318
 58       0.000047328679
 59      -0.000001085787
 60      -0.000029103469
 61       0.000000000001
 62      -0.000000000000
 63       0.000000000000
 64       0.000000000000
 65      -0.000000000000
 66      -0.000000000001
 67       0.000000000001
 68      -0.000000000000
 69       0.000000000000
 70      -0.000000000000
 71       0.000000000000
 72      -0.000000000001
 73       0.000000000000
 74      -0.000000000001
 75       0.000000000001
 76       0.000000000000
 77       0.000000000001
 78      -0.000000000000
 79       0.000000000001
 80      -0.000000000002
 81      -0.000000000000
 82      -0.000000000000
 83      -0.000000000000
 84      -0.000000000001
 85       0.000000000002
 86      -0.000000000000
 87       0.000000000000
 88       0.000000000001
 89       0.000000000000
 90      -0.000000000001
 91       0.000000000000
 92      -0.000000000000
 93      -0.000000000001
 94      -0.000000000000
 95       0.000000000000
 96       0.000000000000
 97       0.000000000000
 98       0.000000000000
 99       0.000000000001
100       0.000000000001
101      -0.000000000000
102      -0.000000000000
103      -0.000000000000
104      -0.000000000000
105      -0.000000000001
106       0.000000000000
107       0.000000000000
108       0.000000000000
109       0.000000000000
110       0.000000000000
111       0.000000707428
112       0.000000537869
113      -0.000000100890
114      -0.000001807835
115       0.000000140416
116      -0.000001539877
117       0.000000036169
118      -0.000000581908
119      -0.000000340891
120       0.000000037157
121       0.000001210803
122      -0.000000074431
123       0.000000923386
124      -0.000000040756
125       0.000000360452
126       0.000000195090
127      -0.000000015764
128      -0.000000706294
129       0.000000039607
130      -0.000000517656
131       0.000000026987
132      -0.000000168114
133      -0.000000100437
134       0.000000011615
135       0.000000355113
136      -0.000000022292
137       0.000000273365
138      -0.000000011563
139       0.000000085671
140       0.000000049376
141      -0.000000005103
142      -0.000000176049
143       0.000000010629
144      -0.000000133198
145       0.000000006089
146      -0.000000039330
147      -0.000000022762
148       0.000000002386
149       0.000000081078
150      -0.000000004918
151       0.000000061468
152      -0.000000002785
153       0.000000013650
154       0.000000007900
155      -0.000000000828
156      -0.000000028141
157       0.000000001707
158      -0.000000021336
159       0.000000000967
 Sym=     1a
 Ene= -2.23542796761616E+02
 Spin= Alpha
 Occup= 1.000000
  1      -0.018801990870
  2      -0.015530953914
  3      -0.025519834705
  4      -0.045090107261
  5      -0.070848323898
  6      -0.093010527477
  7      -0.019385688300
  8       0.307553855346
  9       0.686520267661
 10      -0.236125316376
 11      -0.976675424025
 12      -0.124338529407
 13      -0.021187530425
 14       0.016177824012
 15      -0.011327678742
 16       0.007719343207
 17      -0.005068090295
 18       0.003159092542
 19      -0.001791733760
 20       0.000821959411
 21      -0.000221586702
 22       0.000000000001
 23      -0.000000000000
 24      -0.000000000000
 25      -0.000000000000
 26      -0.000000000000
 27       0.000000000001
 28       0.000000000001
 29      -0.000000000000
 30       0.000000000001
 31      -0.000000000002
 32      -0.000000000000
 33       0.000000000001
 34      -0.000000000001
 35       0.000000000001
 36      -0.000000000003
 37       0.000000000000
 38       0.000000000004
 39      -0.000000000000
 40      -0.000000000000
 41      -0.000000000003
 42      -0.000000000001
 43       0.000000000001
 44       0.000000000005
 45       0.000000000002
 46       0.000000000000
 47      -0.000000000012
 48      -0.000000000001
 49      -0.000000000002
 50       0.000000000047
 51      -0.000000000000
 52       0.000000000001
 53      -0.000000000059
 54       0.000000000001
 55      -0.000000000000
 56       0.000000000034
 57      -0.000000000000
 58      -0.000000000000
 59      -0.000000000010
 60      -0.000000000000
 61      -0.000000452724
 62      -0.000024587073
 63       0.000001399178
 64       0.000024119448
 65      -0.000000592387
 66      -0.000001004279
 67      -0.000054970643
 68       0.000003130902
 69       0.000053938976
 70      -0.000001323528
 71      -0.000000377317
 72      -0.000020958298
 73       0.000001194834
 74       0.000020574501
 75      -0.000000505536
 76       0.000000003564
 77       0.000000503600
 78      -0.000000030699
 79      -0.000000504013
 80       0.000000011453
 81      -0.000000027662
 82      -0.000001817992
 83       0.000000105657
 84       0.000001793635
 85      -0.000000042821
 86       0.000000007704
 87       0.000000494533
 88      -0.000000028601
 89      -0.000000487613
 90       0.000000011842
 91      -0.000000005801
 92      -0.000000388099
 93       0.000000022589
 94       0.000000383152
 95      -0.000000009142
 96       0.000000002885
 97       0.000000192612
 98      -0.000000011200
 99      -0.000000190156
100       0.000000004556
101      -0.000000001362
102      -0.000000091963
103       0.000000005351
104       0.000000090812
105      -0.000000002176
106       0.000000000457
107       0.000000030956
108      -0.000000001801
109      -0.000000030571
110       0.000000000733
111      -0.000000000001
112      -0.000000000003
113      -0.000000000002
114       0.000000000024
115       0.000000000002
116      -0.000000000002
117      -0.000000000003
118       0.000000000000
119       0.000000000002
120       0.000000000002
121      -0.000000000018
122      -0.000000000001
123       0.000000000001
124       0.000000000001
125      -0.000000000001
126      -0.000000000001
127      -0.000000000002
128       0.000000000011
129       0.000000000002
130       0.000000000001
131      -0.000000000001
132       0.000000000001
133       0.000000000001
134       0.000000000001
135      -0.000000000006
136      -0.000000000002
137      -0.000000000001
138       0.000000000000
139      -0.000000000000
140      -0.000000000001
141      -0.000000000000
142       0.000000000003
143       0.000000000001
144       0.000000000000
145      -0.000000000000
146      -0.000000000001
147       0.000000000000
148       0.000000000001
149       0.000000000000
150       0.000000000000
151       0.000000000000
152       0.000000000000
153       0.000000000000
154       0.000000000002
155      -0.000000000000
156      -0.000000000006
157       0.000000000000
158       0.000000000001
159      -0.000000000000
 Sym=     1a
 Ene= -1.83503195499717E+02
 Spin= Alpha
 Occup= 1.000000
  1      -0.000000000000
  2      -0.000000000000
  3      -0.000000000000
  4      -0.000000000000
  5      -0.000000000001
  6      -0.000000000000
  7      -0.000000000001
  8       0.000000000002
  9       0.000000000004
 10      -0.000000000004
 11      -0.000000000002
 12      -0.000000000007
 13       0.000000000013
 14      -0.000000000010
 15       0.000000000003
 16      -0.000000000000
 17       0.000000000000
 18      -0.000000000004
 19       0.000000000005
 20       0.000000000001
 21      -0.000000000001
 22      -0.003924969684
 23       0.101444754031
 24      -0.010165864175
 25      -0.007075008021
 26       0.182860635386
 27      -0.018324618157
 28      -0.010704626342
 29       0.276671737844
 30      -0.027725507697
 31       0.004985984781
 32      -0.128867748288
 33       0.012913945464
 34       0.028573888140
 35      -0.738520588034
 36       0.074007770325
 37       0.009536080800
 38      -0.246469596557
 39       0.024698924123
 40      -0.000285615023
 41       0.007382014302
 42      -0.000739757703
 43       0.000214142641
 44      -0.005534721734
 45       0.000554639283
 46      -0.000121290803
 47       0.003134878979
 48      -0.000314148915
 49       0.000067877421
 50      -0.001754361105
 51       0.000175805969
 52      -0.000037339257
 53       0.000965070134
 54      -0.000096710482
 55       0.000017955452
 56      -0.000464076424
 57       0.000046505480
 58      -0.000005609376
 59       0.000144979782
 60      -0.000014528544
 61       0.000000000000
 62      -0.000000000001
 63      -0.000000000001
 64      -0.000000000003