[Molden Format]
[Title]
 Molden file created by orca_2mkl for BaseName=/data01/Nikolayandreadi/heavy/CC/PaOCl3

[Atoms] AU
Pa   1  91         -0.9842260623         1.5647820560       -22.3865442695 
Cl   2  17          2.5526174953         0.2302083274       -25.3302519265 
Cl   3  17         -1.5317288562        -1.9219138392       -19.1505810172 
Cl   4  17         -4.9731110084         1.6737852389       -25.0375938196 
O    5   8         -0.3629483602         4.5168347437       -20.9770428996 
[GTO]
  1 0
s   9 1.0 
 57631858.1725339964     15318.1146839455
 26196299.1693340018     -5565.0020035622
 11907408.7133339997      8721.7488303571
  5412458.5060609998       341.2948940372
  2460208.4118459998      4085.4543694394
  1118276.5508389999      1905.4034809116
   508307.5231090000      2611.4146297113
   231048.8741400000      1976.6043094082
   105022.2155180000      2031.4725197545
s   1 1.0 
    47737.3706900000      2301.7278018772
s   1 1.0 
    21698.8048590000      1274.1980990770
s   1 1.0 
     9863.0931180000       705.3748034003
s   1 1.0 
     4483.2241440000       390.4837195855
s   1 1.0 
     2037.8291570000       216.1652706843
s   1 1.0 
      926.2859800000       119.6654863652
s   1 1.0 
      421.0390820000        66.2448162538
s   1 1.0 
      191.3814010000        36.6720247745
s   1 1.0 
       86.9915460000        20.3010209355
s   1 1.0 
       39.5416120000        11.2383064381
s   1 1.0 
       17.9734600000         6.2213388954
s   1 1.0 
        8.1697540000         3.4440292161
s   1 1.0 
        3.7135250000         1.9065572739
s   1 1.0 
        1.6879660000         1.0554383322
s   1 1.0 
        0.7672570000         0.5842728914
s   1 1.0 
        0.3487530000         0.3234435957
s   1 1.0 
        0.1585240000         0.1790528998
s   1 1.0 
        0.0720560000         0.0991203221
s   1 1.0 
        0.0327530000         0.0548716988
s   1 1.0 
        0.0148880000         0.0303764741
p   8 1.0 
   820588.6600690000    117960.8380814268
   341911.9416950000     10293.3338078988
   142463.3090400000     34535.2725490902
    59359.7121000000     17348.6583204729
    24733.2133750000     16831.7677005322
    10305.5055730000     13674.5392108057
     4293.9606550000     12899.6246819168
     1789.1502730000     11789.0634615762
p   1 1.0 
      745.4792800000      5552.4487579542
p   1 1.0 
      310.6163670000      1858.7479720243
p   1 1.0 
      129.4234860000       622.2378919893
p   1 1.0 
       53.9264530000       208.3015048177
p   1 1.0 
       22.4693550000        69.7313936668
p   1 1.0 
        9.3622310000        23.3434089560
p   1 1.0 
        3.9009300000         7.8144836060
p   1 1.0 
        1.6253870000         2.6159899143
p   1 1.0 
        0.6772450000         0.8757342738
p   1 1.0 
        0.2821850000         0.2931618768
p   1 1.0 
        0.1175770000         0.0981393227
p   1 1.0 
        0.0489910000         0.0328537894
d   7 1.0 
    39984.8312080000     49820.8214421646
    15993.9324830000     24763.2125679906
     6397.5729930000     27687.8895786202
     2559.0291970000     25715.0680190714
     1023.6116790000     27614.8741414884
      409.4446720000     25104.2866847335
      163.7778690000     17021.7824315036
d   1 1.0 
       65.5111470000      4300.5271063730
d   1 1.0 
       26.2044590000       865.2202593661
d   1 1.0 
       10.4817840000       174.0731121316
d   1 1.0 
        4.1927130000        35.0216472939
d   1 1.0 
        1.6770850000         7.0459809407
d   1 1.0 
        0.6708340000         1.4175763168
d   1 1.0 
        0.2683340000         0.2852020000
d   1 1.0 
        0.1073330000         0.0573790433
d   1 1.0 
        0.0429330000         0.0115439582
f   6 1.0 
     4212.3892570000     53509.6197850903
     1620.1497140000     46215.8871057453
      623.1345050000     51850.9767921649
      239.6671170000     50432.9890340126
       92.1796610000     36159.3884368328
       35.4537160000     14379.0722744372
f   1 1.0 
       13.6360440000      2037.2717616429
f   1 1.0 
        5.2446320000       237.3334078456
f   1 1.0 
        2.0171660000        27.6483213038
f   1 1.0 
        0.7758330000         3.2209103577
f   1 1.0 
        0.2983970000         0.3752213982
f   1 1.0 
        0.1147680000         0.0437116207

  2 0
s   7 1.0 
    69507.9909450000         4.1142286333
    10426.1568800000         4.2286655222
     2373.2334061000         5.8493829067
      671.5642007100         8.3358677251
      218.4199979000        10.0089622684
       77.5722497100         8.2783277553
       28.8888152800         2.9822029766
s   1 1.0 
      127.1052718500        26.9794296956
s   1 1.0 
       39.3395829600        11.1952141621
s   1 1.0 
        7.6740680000         3.2860890225
s   1 1.0 
        3.8745627600        -1.9682357562
s   1 1.0 
        1.8385832600         1.1253110111
s   1 1.0 
        0.5022905800        -0.4252324193
s   1 1.0 
        0.1796272300         0.1966478587
p   6 1.0 
      666.5042328400        13.1758105786
      157.6424169000        16.0544655669
       50.2625209800        17.4320614645
       18.5360781100        14.3789566857
        7.2940532800         7.6571902731
        2.9433249000         1.9874071930
p   1 1.0 
        1.0404970800         1.4979287975
p   1 1.0 
        0.3845641500        -0.4316692201
p   1 1.0 
        0.1306964300         0.1120133392
d   2 1.0 
        4.6100000000         7.5524217504
        1.0110000000         2.6539585854
d   1 1.0 
        0.3390000000         0.4293579962
f   1 1.0 
        0.7060000000         2.6050175686

  3 0
s   7 1.0 
    69507.9909450000         4.1142286333
    10426.1568800000         4.2286655222
     2373.2334061000         5.8493829067
      671.5642007100         8.3358677251
      218.4199979000        10.0089622684
       77.5722497100         8.2783277553
       28.8888152800         2.9822029766
s   1 1.0 
      127.1052718500        26.9794296956
s   1 1.0 
       39.3395829600        11.1952141621
s   1 1.0 
        7.6740680000         3.2860890225
s   1 1.0 
        3.8745627600        -1.9682357562
s   1 1.0 
        1.8385832600         1.1253110111
s   1 1.0 
        0.5022905800        -0.4252324193
s   1 1.0 
        0.1796272300         0.1966478587
p   6 1.0 
      666.5042328400        13.1758105786
      157.6424169000        16.0544655669
       50.2625209800        17.4320614645
       18.5360781100        14.3789566857
        7.2940532800         7.6571902731
        2.9433249000         1.9874071930
p   1 1.0 
        1.0404970800         1.4979287975
p   1 1.0 
        0.3845641500        -0.4316692201
p   1 1.0 
        0.1306964300         0.1120133392
d   2 1.0 
        4.6100000000         7.5524217504
        1.0110000000         2.6539585854
d   1 1.0 
        0.3390000000         0.4293579962
f   1 1.0 
        0.7060000000         2.6050175686

  4 0
s   7 1.0 
    69507.9909450000         4.1142286333
    10426.1568800000         4.2286655222
     2373.2334061000         5.8493829067
      671.5642007100         8.3358677251
      218.4199979000        10.0089622684
       77.5722497100         8.2783277553
       28.8888152800         2.9822029766
s   1 1.0 
      127.1052718500        26.9794296956
s   1 1.0 
       39.3395829600        11.1952141621
s   1 1.0 
        7.6740680000         3.2860890225
s   1 1.0 
        3.8745627600        -1.9682357562
s   1 1.0 
        1.8385832600         1.1253110111
s   1 1.0 
        0.5022905800        -0.4252324193
s   1 1.0 
        0.1796272300         0.1966478587
p   6 1.0 
      666.5042328400        13.1758105786
      157.6424169000        16.0544655669
       50.2625209800        17.4320614645
       18.5360781100        14.3789566857
        7.2940532800         7.6571902731
        2.9433249000         1.9874071930
p   1 1.0 
        1.0404970800         1.4979287975
p   1 1.0 
        0.3845641500        -0.4316692201
p   1 1.0 
        0.1306964300         0.1120133392
d   2 1.0 
        4.6100000000         7.5524217504
        1.0110000000         2.6539585854
d   1 1.0 
        0.3390000000         0.4293579962
f   1 1.0 
        0.7060000000         2.6050175686

  5 0
s   6 1.0 
    27032.3826310000         1.4645050749
     4052.3871392000         1.8244031008
      922.3272271000         2.8547160967
      261.2407098900         4.3654874290
       85.3546413500         5.8940772662
       31.0350352400         6.2963020147
s   1 1.0 
       12.2608607300         4.6698272139
s   1 1.0 
        4.9987076000         2.3826123703
s   1 1.0 
        1.1703108200         0.8019291632
s   1 1.0 
        0.4647474100        -0.4011648063
s   1 1.0 
        0.1850453600         0.2010799377
p   4 1.0 
       63.2749548000         3.0898340730
       14.6270493800         3.3923831935
        4.4501223500         2.9482801524
        1.5275799600         1.7113350234
p   1 1.0 
        0.5293511800         0.6436057935
p   1 1.0 
        0.1747842100         0.1610897223
d   1 1.0 
        2.3140000000        12.3767310624
d   1 1.0 
        0.6450000000         1.3234257612
f   1 1.0 
        1.4280000000        12.7097950062

[5D]
[7F]
[9G]
[MO]
 Sym=     1a
 Ene= -4.14988010023358E+03
 Spin= Alpha
 Occup= 2.000000
  1       0.082736395472
  2       0.064032683879
  3       0.110205838704
  4       0.176314908376
  5       0.264167119767
  6       0.304987653763
  7       0.195137588184
  8       0.032838552469
  9       0.000846864694
 10      -0.000591136046
 11       0.000433382168
 12      -0.000323736357
 13       0.000231557719
 14      -0.000157060475
 15       0.000105987742
 16      -0.000073049383
 17       0.000051271259
 18      -0.000034231732
 19       0.000015876045
 20      -0.000006619270
 21       0.000001670989
 22       0.000000006884
 23       0.000000031316
 24       0.000000018444
 25       0.000000022655
 26       0.000000107773
 27       0.000000051351
 28       0.000000012750
 29       0.000000060593
 30       0.000000029070
 31      -0.000000000908
 32      -0.000000004203
 33      -0.000000002412
 34       0.000000005194
 35       0.000000024461
 36       0.000000012489
 37      -0.000000009892
 38      -0.000000046633
 39      -0.000000023662
 40       0.000000015410
 41       0.000000072608
 42       0.000000036959
 43      -0.000000028589
 44      -0.000000134877
 45      -0.000000068058
 46       0.000000063399
 47       0.000000299715
 48       0.000000148882
 49      -0.000000168664
 50      -0.000000799122
 51      -0.000000389975
 52       0.000000349889
 53       0.000001659865
 54       0.000000802001
 55      -0.000000816669
 56      -0.000003878323
 57      -0.000001857360
 58       0.000000072994
 59       0.000000347480
 60       0.000000160922
 61       0.000000000139
 62      -0.000000000050
 63      -0.000000000221
 64       0.000000000315
 65      -0.000000000132
 66      -0.000000004366
 67       0.000000002568
 68       0.000000012159
 69      -0.000000011902
 70       0.000000005241
 71      -0.000000005363
 72       0.000000003257
 73       0.000000015511
 74      -0.000000016387
 75       0.000000007223
 76       0.000000013222
 77      -0.000000007928
 78      -0.000000037764
 79       0.000000039180
 80      -0.000000017265
 81      -0.000000027263
 82       0.000000016313
 83       0.000000077690
 84      -0.000000080209
 85       0.000000035342
 86       0.000000047932
 87      -0.000000028732
 88      -0.000000136824
 89       0.000000141469
 90      -0.000000062340
 91      -0.000000041735
 92       0.000000025496
 93       0.000000121655
 94      -0.000000129722
 95       0.000000057205
 96      -0.000000079920
 97       0.000000045988
 98       0.000000217621
 99      -0.000000206997
100       0.000000091014
101       0.000000568187
102      -0.000000336337
103      -0.000001596417
104       0.000001592423
105      -0.000000701146
106      -0.000000088383
107       0.000000050410
108       0.000000240478
109      -0.000000240875
110       0.000000105957
111      -0.000000004207
112       0.000000000073
113      -0.000000005887
114      -0.000000024173
115       0.000000009809
116       0.000000006808
117       0.000000008398
118       0.000000012023
119      -0.000000000229
120       0.000000017306
121       0.000000070767
122      -0.000000028699
123      -0.000000019777
124      -0.000000024348
125      -0.000000027514
126       0.000000000442
127      -0.000000036912
128      -0.000000152846
129       0.000000062085
130       0.000000043472
131       0.000000053770
132       0.000000055546
133      -0.000000000883
134       0.000000073819
135       0.000000306363
136      -0.000000124471
137      -0.000000087307
138      -0.000000108047
139      -0.000000081557
140       0.000000002761
141      -0.000000148774
142      -0.000000589169
143       0.000000237785
144       0.000000155178
145       0.000000187962
146      -0.000000106850
147      -0.000000012510
148       0.000000252538
149       0.000000770620
150      -0.000000297622
151      -0.000000095976
152      -0.000000079109
153       0.000000481725
154       0.000000021602
155      -0.000000172353
156      -0.000000144590
157       0.000000027189
158      -0.000000210016
159      -0.000000340708
160       0.000000018149
161      -0.000000019509
162       0.000000016167
163      -0.000000135594
164      -0.000000304118
165      -0.000000312509
166      -0.000000150799
167      -0.000000442388
168      -0.000000013306
169       0.000000005080
170       0.000000011139
171       0.000000120522
172      -0.000000045426
173      -0.000000100453
174       0.000000326846
175      -0.000000121276
176      -0.000000271194
177       0.000000151760
178      -0.000000217383
179      -0.000000227967
180       0.000000000402
181       0.000000008097
182       0.000000006686
183      -0.000000012166
184       0.000000000393
185       0.000000018543
186      -0.000000282431
187       0.000000072459
188       0.000000173553
189      -0.000000113788
190      -0.000000021597
191      -0.000000028782
192       0.000000014511
193       0.000000024703
194      -0.000000040541
195       0.000000003221
196      -0.000000023751
197       0.000000018259
198      -0.000000019628
199       0.000000016267
200      -0.000000136451
201      -0.000000306108
202      -0.000000314716
203      -0.000000151926
204      -0.000000435384
205       0.000000002061
206       0.000000013152
207      -0.000000012373
208      -0.000000018643
209      -0.000000118991
210       0.000000111825
211      -0.000000050434
212      -0.000000322374
213       0.000000304571
214      -0.000000059571
215      -0.000000328465
216       0.000000098749
217      -0.000000009964
218       0.000000001756
219       0.000000011296
220      -0.000000005500
221       0.000000002674
222       0.000000097611
223      -0.000000049093
224      -0.000000314892
225      -0.000000127664
226       0.000000038129
227       0.000000024921
228       0.000000004271
229       0.000000024854
230       0.000000044739
231      -0.000000014890
232       0.000000013513
233       0.000000025055
234       0.000000018147
235      -0.000000019507
236       0.000000016166
237      -0.000000135595
238      -0.000000304155
239      -0.000000312624
240      -0.000000151107
241      -0.000000442333
242       0.000000015002
243      -0.000000000352
244       0.000000010015
245      -0.000000135780
246       0.000000003746
247      -0.000000090379
248      -0.000000367848
249       0.000000011941
250      -0.000000244200
251      -0.000000238072
252      -0.000000142835
253      -0.000000212768
254       0.000000001208
255      -0.000000004014
256       0.000000008675
257      -0.000000009234
258       0.000000008829
259      -0.000000018852
260       0.000000272224
261      -0.000000037217
262       0.000000224598
263      -0.000000043560
264      -0.000000026441
265       0.000000022334
266       0.000000001248
267       0.000000046709
268       0.000000010998
269      -0.000000027260
270      -0.000000007346
271      -0.000000023321
272       0.000000110285
273      -0.000000222607
274       0.000000898127
275       0.000001760193
276       0.000005205709
277      -0.000000019979
278      -0.000000094850
279      -0.000000045703
280       0.000000108939
281       0.000000517221
282       0.000000249081
283      -0.000000334587
284      -0.000001589448
285      -0.000000760523
286      -0.000000000270
287       0.000000000483
288       0.000000002198
289      -0.000000001956
290       0.000000000879
291       0.000000118430
292      -0.000000071451
293      -0.000000339126
294       0.000000338045
295      -0.000000148963
296      -0.000000062098
297      -0.000000001538
298      -0.000000008468
299      -0.000000089447
300       0.000000039284
301       0.000000048781
302       0.000000067825
 Sym=     1a
 Ene= -7.80489740718193E+02
 Spin= Alpha
 Occup= 2.000000
  1      -0.034737787423
  2      -0.029020404286
  3      -0.048844231579
  4      -0.085593410773
  5      -0.138057793622
  6      -0.178936125086
  7      -0.077157333254
  8       0.363379100413
  9       0.614615198339
 10       0.174692164054
 11      -0.002212691766
 12       0.002024711316
 13      -0.001120765062
 14       0.000603595112
 15      -0.000352709963
 16       0.000232903741
 17      -0.000160650911
 18       0.000106049033
 19      -0.000049149291
 20       0.000020465426
 21      -0.000005161260
 22       0.000000912758
 23       0.000004338695
 24       0.000002074403
 25       0.000001493670
 26       0.000007097926
 27       0.000003398441
 28       0.000002586820
 29       0.000012290364
 30       0.000005892170
 31       0.000002005760
 32       0.000009531281
 33       0.000004561955
 34       0.000000324720
 35       0.000001545815
 36       0.000000730059
 37       0.000000047810
 38       0.000000225878
 39       0.000000113484
 40      -0.000000041383
 41      -0.000000194259
 42      -0.000000101391
 43       0.000000077568
 44       0.000000365459
 45       0.000000186190
 46      -0.000000201323
 47      -0.000000952191
 48      -0.000000471825
 49       0.000000520920
 50       0.000002468294
 51       0.000001204167
 52      -0.000001062027
 53      -0.000005038085
 54      -0.000002434716
 55       0.000002504872
 56       0.000011895257
 57       0.000005696921
 58      -0.000000223979
 59      -0.000001066237
 60      -0.000000493780
 61       0.000000039495
 62      -0.000000022609
 63      -0.000000106599
 64       0.000000114598
 65      -0.000000050154
 66       0.000000250982
 67      -0.000000149588
 68      -0.000000709958
 69       0.000000710708
 70      -0.000000313351
 71      -0.000000034561
 72       0.000000019894
 73       0.000000094889
 74      -0.000000087550
 75       0.000000038718
 76       0.000000009439
 77      -0.000000005371
 78      -0.000000025298
 79       0.000000019761
 80      -0.000000008791
 81       0.000000051201
 82      -0.000000030641
 83      -0.000000146229
 84       0.000000153320
 85      -0.000000067516
 86      -0.000000138541
 87       0.000000083101
 88       0.000000395786
 89      -0.000000409856
 90       0.000000180593
 91       0.000000109218
 92      -0.000000067004
 93      -0.000000320013
 94       0.000000344409
 95      -0.000000151887
 96       0.000000246490
 97      -0.000000141924
 98      -0.000000671499
 99       0.000000639526
100      -0.000000281203
101      -0.000001743608
102       0.000001032084
103       0.000004898909
104      -0.000004886605
105       0.000002151574
106       0.000000272667
107      -0.000000155551
108      -0.000000742029
109       0.000000743193
110      -0.000000326923
111      -0.000000095606
112      -0.000000000376
113      -0.000000076333
114      -0.000000351969
115       0.000000144982
116       0.000000116478
117       0.000000149266
118       0.000000015133
119       0.000000001639
120      -0.000000034872
121      -0.000000104529
122       0.000000040303
123       0.000000012763
124       0.000000010343
125       0.000000055321
126      -0.000000002393
127       0.000000119143
128       0.000000460576
129      -0.000000185325
130      -0.000000117272
131      -0.000000140637
132      -0.000000148439
133       0.000000003119
134      -0.000000219118
135      -0.000000893602
136       0.000000362200
137       0.000000247879
138       0.000000304593
139       0.000000230757
140      -0.000000008604
141       0.000000442445
142       0.000001741312
143      -0.000000702144
144      -0.000000453476
145      -0.000000547500
146       0.000000330836
147       0.000000038111
148      -0.000000763869
149      -0.000002324142
150       0.000000897086
151       0.000000285215
152       0.000000231985
153      -0.000001474866
154      -0.000000066011
155       0.000000524240
156       0.000000430830
157      -0.000000078558
158       0.000000645315
159       0.000001045669
160      -0.000000033271
161       0.000000042149
162      -0.000000051751
163       0.000000400806
164       0.000000917754
165       0.000000954918
166       0.000000480506
167       0.000001387111
168       0.000000040202
169      -0.000000015275
170      -0.000000033614
171      -0.000000361947
172       0.000000136334
173       0.000000301644
174      -0.000000993203
175       0.000000368221
176       0.000000823942
177      -0.000000480950
178       0.000000669956
179       0.000000710421
180      -0.000000001661
181      -0.000000019414
182      -0.000000022177
183       0.000000034214
184       0.000000001142
185      -0.000000055635
186       0.000000849941
187      -0.000000217153
188      -0.000000523035
189       0.000000342010
190       0.000000062138
191       0.000000083297
192      -0.000000042845
193      -0.000000068607
194       0.000000118474
195      -0.000000007391
196       0.000000068451
197      -0.000000033466
198       0.000000042395
199      -0.000000052054
200       0.000000403227
201       0.000000923501
202       0.000000961390
203       0.000000483963
204       0.000001365951
205      -0.000000006207
206      -0.000000039641
207       0.000000037408
208       0.000000055943
209       0.000000357116
210      -0.000000335857
211       0.000000153139
212       0.000000978995
213      -0.000000925522
214       0.000000184510
215       0.000001019748
216      -0.000000317846
217       0.000000029016
218      -0.000000004460
219      -0.000000028751
220       0.000000019549
221      -0.000000009031
222      -0.000000294622
223       0.000000147741
224       0.000000947712
225       0.000000383167
226      -0.000000114329
227      -0.000000073372
228      -0.000000011899
229      -0.000000068720
230      -0.000000128818
231       0.000000042975
232      -0.000000039830
233      -0.000000073584
234      -0.000000033269
235       0.000000042145
236      -0.000000051747
237       0.000000400815
238       0.000000917877
239       0.000000955283
240       0.000000481489
241       0.000001387032
242      -0.000000045293
243       0.000000001134
244      -0.000000030215
245       0.000000407712
246      -0.000000011328
247       0.000000271378
248       0.000001117649
249      -0.000000036564
250       0.000000741901
251       0.000000746583
252       0.000000435193
253       0.000000662582
254      -0.000000003407
255       0.000000006964
256      -0.000000026129
257       0.000000024051
258      -0.000000026537
259       0.000000056871
260      -0.000000818814
261       0.000000112773
262      -0.000000676092
263       0.000000131964
264       0.000000076200
265      -0.000000065204
266      -0.000000004089
267      -0.000000134034
268      -0.000000034572
269       0.000000077737
270       0.000000023174
271       0.000000063055
272      -0.000000313226
273       0.000000642524
274      -0.000002685449
275      -0.000005358173
276      -0.000015965661
277       0.000000057154
278       0.000000271322
279       0.000000130819
280      -0.000000330530
281      -0.000001569309
282      -0.000000755752
283       0.000001029453
284       0.000004890383
285       0.000002339853
286      -0.000000003263
287       0.000000000945
288       0.000000004786
289      -0.000000005543
290       0.000000002388
291      -0.000000353048
292       0.000000213097
293       0.000001011400
294      -0.000001008061
295       0.000000444216
296       0.000000174636
297       0.000000004299
298       0.000000023868
299       0.000000252132
300      -0.000000110718
301      -0.000000137355
302      -0.000000190951
 Sym=     1a
 Ene= -6.57176459492120E+02
 Spin= Alpha
 Occup= 2.000000
  1      -0.000000003362
  2      -0.000000002881
  3      -0.000000004581
  4      -0.000000008955
  5      -0.000000012415
  6      -0.000000020292
  7       0.000000000923
  8       0.000000031439
  9       0.000000086084
 10      -0.000000062293
 11       0.000000118485
 12      -0.000000195265
 13       0.000000322822
 14      -0.000000516026
 15       0.000000820627
 16      -0.000001295016
 17       0.000001942588
 18      -0.000001705679
 19      -0.000001695117
 20       0.000000216657
 21      -0.000000093444
 22       0.025421895082
 23       0.070533641687
 24      -0.159644901129
 25       0.043574631041
 26       0.120898832358
 27      -0.273640798074
 28       0.065948236590
 29       0.182974916913
 30      -0.414142994170
 31       0.034855994075
 32       0.096708769654
 33      -0.218889342475
 34       0.001198751201
 35       0.003325951852
 36      -0.007527921870
 37       0.000632517830
 38       0.001754953654
 39      -0.003972121560
 40      -0.000439833889
 41      -0.001220362234
 42       0.002762117978
 43       0.000272564921
 44       0.000756292986
 45      -0.001711729387
 46      -0.000167963532
 47      -0.000466104957
 48       0.001054915788
 49       0.000106283567
 50       0.000294988535
 51      -0.000667725523
 52      -0.000068353102
 53      -0.000189620407
 54       0.000429806206
 55       0.000039602608
 56       0.000108916910
 57      -0.000252638039
 58      -0.000007258272
 59      -0.000020137395
 60       0.000046028361
 61      -0.000003872010
 62      -0.000000608075
 63      -0.000002900634
 64      -0.000001229126
 65       0.000000899876
 66      -0.000000670169
 67      -0.000000142923
 68      -0.000001893131
 69      -0.000001406175
 70       0.000000647705
 71      -0.000000620909
 72      -0.000000039941
 73       0.000001842593
 74       0.000001800717
 75      -0.000000677448
 76       0.000000792503
 77       0.000000030121
 78      -0.000003276701
 79      -0.000003104186
 80       0.000001195575
 81      -0.000001337688
 82      -0.000000041519
 83       0.000005983797
 84       0.000005637659
 85      -0.000002181157
 86       0.000002593923
 87       0.000000089060
 88      -0.000011294611
 89      -0.000010672490
 90       0.000004122277
 91      -0.000005344114
 92      -0.000000221397
 93       0.000021872693
 94       0.000020814702
 95      -0.000008009781
 96       0.000010885622
 97       0.000000546716
 98      -0.000041339626
 99      -0.000039617089
100       0.000015176972
101      -0.000011628322
102      -0.000000258010
103       0.000073786345
104       0.000070339233
105      -0.000027779789
106      -0.000001466475
107      -0.000000412084
108      -0.000010285349
109      -0.000008714285
110       0.000003716536
111       0.000000067570
112       0.000000112087
113       0.000000448243
114      -0.000000138268
115       0.000000059658
116      -0.000000068732
117      -0.000000036843
118      -0.000000332319
119      -0.000000165905
120      -0.000000484375
121       0.000000064987
122      -0.000000077578
123      -0.000000068251
124      -0.000000202463
125       0.000000804576
126       0.000000283581
127       0.000000646002
128       0.000000030631
129       0.000000122189
130       0.000000290441
131       0.000000609450
132      -0.000001761282
133      -0.000000535750
134      -0.000001035790
135      -0.000000203294
136      -0.000000220017
137      -0.000000725804
138      -0.000001420206
139       0.000004189254
140       0.000001183123
141       0.000002065775
142       0.000000639234
143       0.000000467644
144       0.000001813313
145       0.000003456401
146      -0.000010704495
147      -0.000002779232
148      -0.000004225710
149      -0.000002074795
150      -0.000001037076
151      -0.000004837707
152      -0.000009006543
153       0.000023958596
154       0.000008549741
155       0.000020043479
156       0.000001413759
157       0.000003374481
158       0.000007829295
159       0.000017149096
160       0.000000403623
161      -0.000000515938
162       0.000000658807
163      -0.000004875926
164      -0.000010593165
165      -0.000010028249
166      -0.000009327861
167      -0.000045285179
168      -0.000000764541
169       0.000000297078
170       0.000000699878
171       0.000003959563
172      -0.000001444038
173      -0.000003858160
174       0.000001252372
175       0.000000036899
176      -0.000003327864
177       0.000013168848
178      -0.000001497349
179      -0.000021235318
180       0.000000609965
181       0.000002171921
182      -0.000001355879
183      -0.000001685001
184       0.000001673621
185      -0.000001120586
186      -0.000007401581
187       0.000004072385
188       0.000005333895
189      -0.000004791902
190      -0.000003468992
191      -0.000003155285
192       0.000001217271
193       0.000004711018
194      -0.000004539700
195       0.000001720042
196      -0.000003389174
197      -0.000000683312
198       0.000000873495
199      -0.000001115539
200       0.000008259678
201       0.000017955444
202       0.000017022280
203       0.000015848852
204       0.000076687317
205      -0.000000215413
206      -0.000001331141
207       0.000001190626
208       0.000001158716
209       0.000007010055
210      -0.000006351654
211       0.000000804628
212       0.000003579268
213      -0.000003284063
214       0.000005339947
215       0.000027028196
216      -0.000027533186
217       0.000000906169
218      -0.000000602641