[Molden Format]
[Title]
 Molden file created by orca_2mkl for BaseName=/data01/Nikolayandreadi/heavy/simpleIons/HCOO_-

[Atoms] AU
C    1   6          2.3863234852        -0.3306472714        -0.5071439128 
O    2   8          3.3757066102         0.4553465195        -2.5153823315 
O    3   8          0.2938637522         0.1950650904         0.4806839675 
H    4   1          3.5674779079        -1.7351805512         0.5854692816 
[GTO]
  1 0
s   6 1.0 
    13575.3496820000         0.7684632837
     2035.2333680000         1.0861436461
      463.2256235900         1.7703924000
      131.2001959800         2.7178496271
       42.8530158900         3.6101953426
       15.5841857700         3.6946140086
s   1 1.0 
        6.2067138500         2.8025694579
s   1 1.0 
        2.5764896500         1.4493770955
s   1 1.0 
        0.5769633900         0.4718145012
s   1 1.0 
        0.2297283100        -0.2364944648
s   1 1.0 
        0.0951644400         0.1221141848
p   4 1.0 
       34.6972322400         1.3669717438
        7.9582622800         1.4530900682
        2.3780826900         1.2707683638
        0.8143320800         0.8025478511
p   1 1.0 
        0.2888754700         0.3018758836
p   1 1.0 
        0.1005682400         0.0807265050
d   1 1.0 
        1.0970000000         3.3522135855
d   1 1.0 
        0.3180000000         0.3838994974
f   1 1.0 
        0.7610000000         3.0840084332
s   1 1.0 
        0.0317214800         0.0535704351
p   1 1.0 
        0.0335227467         0.0204462931

  2 0
s   6 1.0 
    27032.3826310000         1.4645050749
     4052.3871392000         1.8244031008
      922.3272271000         2.8547160967
      261.2407098900         4.3654874290
       85.3546413500         5.8940772662
       31.0350352400         6.2963020147
s   1 1.0 
       12.2608607300         4.6698272139
s   1 1.0 
        4.9987076000         2.3826123703
s   1 1.0 
        1.1703108200         0.8019291632
s   1 1.0 
        0.4647474100        -0.4011648063
s   1 1.0 
        0.1850453600         0.2010799377
p   4 1.0 
       63.2749548000         3.0898340730
       14.6270493800         3.3923831935
        4.4501223500         2.9482801524
        1.5275799600         1.7113350234
p   1 1.0 
        0.5293511800         0.6436057935
p   1 1.0 
        0.1747842100         0.1610897223
d   1 1.0 
        2.3140000000        12.3767310624
d   1 1.0 
        0.6450000000         1.3234257612
f   1 1.0 
        1.4280000000        12.7097950062
s   1 1.0 
        0.0616817867         0.0882120269
p   1 1.0 
        0.0582614033         0.0408005732

  3 0
s   6 1.0 
    27032.3826310000         1.4645050749
     4052.3871392000         1.8244031008
      922.3272271000         2.8547160967
      261.2407098900         4.3654874290
       85.3546413500         5.8940772662
       31.0350352400         6.2963020147
s   1 1.0 
       12.2608607300         4.6698272139
s   1 1.0 
        4.9987076000         2.3826123703
s   1 1.0 
        1.1703108200         0.8019291632
s   1 1.0 
        0.4647474100        -0.4011648063
s   1 1.0 
        0.1850453600         0.2010799377
p   4 1.0 
       63.2749548000         3.0898340730
       14.6270493800         3.3923831935
        4.4501223500         2.9482801524
        1.5275799600         1.7113350234
p   1 1.0 
        0.5293511800         0.6436057935
p   1 1.0 
        0.1747842100         0.1610897223
d   1 1.0 
        2.3140000000        12.3767310624
d   1 1.0 
        0.6450000000         1.3234257612
f   1 1.0 
        1.4280000000        12.7097950062
s   1 1.0 
        0.0616817867         0.0882120269
p   1 1.0 
        0.0582614033         0.0408005732

  4 0
s   3 1.0 
       34.0613410000         0.2556300129
        5.1235746000         0.4613599287
        1.1646626000         0.6811215012
s   1 1.0 
        0.3272304100         0.3083545312
s   1 1.0 
        0.1030724100         0.1296483265
p   1 1.0 
        0.8000000000         1.0784563492

[5D]
[7F]
[9G]
[MO]
 Sym=     1a
 Ene= -2.03023932304374E+01
 Spin= Alpha
 Occup= 2.000000
  1      -0.000003868771
  2       0.000006905199
  3      -0.000066744592
  4       0.000133897244
  5      -0.000776947162
  6      -0.000569183365
  7       0.000334822896
  8       0.000074865120
  9      -0.000394903163
 10       0.003494592824
 11       0.000612774851
 12      -0.003870497311
 13      -0.000502393303
 14      -0.000283659655
 15       0.000847761717
 16       0.000195516618
 17      -0.000057539604
 18      -0.000163193086
 19      -0.000090208014
 20       0.000116491143
 21       0.001440329844
 22      -0.000276433163
 23      -0.001067543332
 24      -0.000805305774
 25       0.001024035583
 26       0.000026223571
 27       0.000022329438
 28       0.000135260967
 29      -0.000039260324
 30       0.000012269777
 31      -0.000059280505
 32       0.000085295805
 33       0.000142303499
 34       0.000401192469
 35       0.000059566680
 36      -0.000428285677
 37       0.368734115519
 38       0.348150781007
 39       0.212128212295
 40       0.020784543181
 41       0.011884363153
 42       0.003191809430
 43      -0.000660566960
 44      -0.000492060107
 45       0.001292079644
 46       0.001364911845
 47       0.000897288748
 48      -0.002491861238
 49       0.000172235658
 50       0.000009283488
 51      -0.000159601958
 52       0.000081765456
 53      -0.000095720260
 54      -0.000080242974
 55       0.000017044439
 56       0.000021093122
 57      -0.000452032947
 58       0.000508544137
 59       0.000248546313
 60      -0.000029563377
 61      -0.000314519248
 62      -0.000017500346
 63       0.000040311171
 64       0.000017378278
 65      -0.000008115782
 66      -0.000031993824
 67       0.000008795136
 68      -0.000012447992
 69      -0.000879139399
 70      -0.000139061643
 71      -0.000049698064
 72       0.000191728975
 73      -0.233074747784
 74      -0.220059289612
 75      -0.134093365510
 76      -0.013156545023
 77      -0.007845655233
 78      -0.001685730332
 79      -0.000842345059
 80       0.000197428192
 81       0.000418820940
 82       0.001769902411
 83      -0.000339972273
 84      -0.000991520762
 85       0.000202094343
 86       0.000102670621
 87      -0.000323988583
 88       0.000016271872
 89       0.000058707593
 90      -0.000019451266
 91      -0.000051829926
 92       0.000017817201
 93      -0.000098202762
 94      -0.000370206860
 95       0.000217767049
 96       0.000298661400
 97      -0.000011514443
 98       0.000020892207
 99      -0.000004018040
100      -0.000019657950
101      -0.000011973256
102       0.000024653907
103      -0.000015585466
104      -0.000010507533
105       0.000779723405
106      -0.000091501161
107       0.000000913426
108       0.000076081729
109       0.000039305306
110       0.000171780675
111      -0.000207873361
112       0.000009178547
113       0.000019204535
114      -0.000036376715
 Sym=     1a
 Ene= -2.03023584830477E+01
 Spin= Alpha
 Occup= 2.000000
  1      -0.000017189406
  2       0.000030862300
  3      -0.000296572837
  4       0.000592895578
  5      -0.003446272207
  6      -0.002523069230
  7      -0.000245707340
  8       0.000185703472
  9      -0.000068680506
 10      -0.001950163815
 11       0.001244235534
 12      -0.000202965927
 13       0.000996598872
 14      -0.000986690135
 15       0.000626363598
 16       0.000035516252
 17      -0.000280690645
 18      -0.000064918362
 19       0.000187622044
 20      -0.000073138325
 21       0.000057737284
 22      -0.001417638751
 23       0.000280634116
 24       0.000900188090
 25       0.000052857247
 26       0.000065369698
 27      -0.000027850172
 28      -0.000016920019
 29       0.000022928820
 30       0.000112265502
 31      -0.000056078396
 32      -0.000051884141
 33       0.000631347224
 34      -0.000184295520
 35       0.000098185914
 36       0.000009715365
 37       0.233074938256
 38       0.220075703811
 39       0.134065627168
 40       0.013093894023
 41       0.006734045336
 42       0.002790788014
 43      -0.000410285685
 44      -0.000327167045
 45       0.000834617208
 46       0.000539826601
 47       0.000551319587
 48      -0.001278167423
 49      -0.000421929438
 50       0.000152979136
 51       0.000129214082
 52       0.000063466926
 53      -0.000069049050
 54      -0.000098116800
 55       0.000018584366
 56      -0.000017995475
 57      -0.000292910185
 58       0.000234758805
 59       0.000327644484
 60       0.000006724272
 61      -0.000059465705
 62       0.000000335953
 63       0.000036573377
 64       0.000061020799
 65      -0.000008976523
 66      -0.000006820733
 67      -0.000018052030
 68       0.000007821861
 69      -0.000033455690
 70      -0.000111238724
 71      -0.000069039288
 72       0.000196992981
 73       0.368734294860
 74       0.348161289259
 75       0.212110602179
 76       0.020744642167
 77       0.011181381268
 78       0.003890163108
 79       0.001362721626
 80      -0.000336278895
 81      -0.000652403089
 82      -0.002317354001
 83       0.000596579676
 84       0.001072599752
 85       0.000043255299
 86       0.000171737021
 87      -0.000292440488
 88      -0.000032769288
 89      -0.000107173787
 90      -0.000023860283
 91       0.000112483726
 92      -0.000095939571
 93       0.000220988238
 94       0.000450757904
 95      -0.000135751551
 96      -0.000486591687
 97       0.000293190690
 98      -0.000025089078
 99      -0.000001068232
100      -0.000020149361
101       0.000052350641
102      -0.000005839544
103       0.000030124454
104      -0.000049756270
105      -0.000407903418
106       0.000270124212
107      -0.000047254953
108      -0.000158227059
109       0.000174405853
110       0.000762198023
111      -0.000923475262
112      -0.000069709574
113       0.000075956132
114      -0.000054150623
 Sym=     1a
 Ene= -1.11286187002776E+01
 Spin= Alpha
 Occup= 2.000000
  1       0.467676246071
  2       0.403852907562
  3       0.227642555718
  4       0.020137005405
  5       0.007361409607
  6       0.009872064763
  7      -0.000045059025
  8       0.000053740774
  9      -0.000041920512
 10      -0.000466041818
 11       0.000554559715
 12      -0.000431671214
 13       0.000074095723
 14      -0.000087975899
 15       0.000068343845
 16       0.000157631770
 17      -0.000560549280
 18      -0.000359546674
 19       0.000356466386
 20      -0.000244963169
 21       0.000203838293
 22      -0.000727889056
 23      -0.000440821662
 24       0.000456986935
 25      -0.000293524125
 26      -0.000504277207
 27       0.000421547093
 28       0.000228909357
 29       0.000216058728
 30      -0.000637069003
 31       0.000398526046
 32      -0.000189316652
 33       0.000745670443
 34       0.000082552566
 35      -0.000098152908
 36       0.000076346947
 37      -0.000125576466
 38      -0.000147997155
 39      -0.000123326173
 40       0.000565399757
 41       0.001242814919
 42      -0.000658225462
 43      -0.000155404866
 44      -0.000126212840
 45       0.000319542801
 46       0.000409886380
 47       0.000295102628
 48      -0.000786513981
 49       0.000033159228
 50      -0.000004889697
 51      -0.000020780472
 52       0.000029655277
 53      -0.000027230434
 54      -0.000021593279
 55      -0.000001136465
 56       0.000016738434
 57      -0.000222919811
 58       0.000293316468
 59       0.000171500354
 60      -0.000057752965
 61      -0.000097262566
 62       0.000007262133
 63      -0.000025822432
 64      -0.000061095351
 65      -0.000007490150
 66       0.000008230166
 67       0.000009294660
 68      -0.000007737880
 69      -0.002517078882
 70       0.000232353974
 71       0.000455628692
 72      -0.000875389227
 73      -0.000125510267
 74      -0.000147925377
 75      -0.000123264656
 76       0.000565431288
 77       0.001242526603
 78      -0.000657958071
 79       0.000332916882
 80      -0.000084946448
 81      -0.000155224020
 82      -0.000818844323
 83       0.000191361654
 84       0.000407968108
 85      -0.000021085006
 86      -0.000009471247
 87       0.000031954405
 88      -0.000014901544
 89      -0.000028540239
 90       0.000013704642
 91       0.000030311820
 92      -0.000014851749
 93       0.000064698299
 94       0.000302026256
 95      -0.000056318733
 96      -0.000260946441
 97       0.000106742674
 98       0.000012429976
 99      -0.000013619195
100       0.000023489126
101      -0.000028620632
102       0.000001161385
103      -0.000016668175
104       0.000052060042
105      -0.002516591682
106      -0.000916873287
107       0.000358534035
108       0.000241903900
109      -0.000001795716
110      -0.000159431996
111      -0.001099494527
112       0.000269336691
113      -0.000320253135
114       0.000249116571
 Sym=     1a
 Ene= -1.15559674539896E+00
 Spin= Alpha
 Occup= 2.000000
  1       0.062493304266
  2       0.085854970781
  3       0.057054963660
  4      -0.227176663002
  5       0.129312355715
  6      -0.009393892460
  7       0.035541387978
  8      -0.042347955896
  9       0.033003707729
 10       0.013474630050
 11      -0.016052996753
 12       0.012509298009
 13      -0.004013383015
 14       0.004776595862
 15      -0.003718793335
 16      -0.004504289796
 17       0.016607015671
 18       0.005627584190
 19      -0.009425743841
 20       0.002523122449
 21      -0.002580243825
 22       0.009835463335
 23       0.000786048492
 24      -0.005010031398
 25      -0.000900406549
 26       0.005255298632
 27      -0.004752867406
 28      -0.002832197342
 29      -0.002682353239
 30       0.006398196938
 31      -0.004025457568
 32       0.002549746494
 33      -0.002910513110
 34      -0.000165918082
 35       0.000196757618
 36      -0.000152680163
 37       0.060768454512
 38       0.091706733296
 39       0.060022560830
 40      -0.208741602016
 41       0.274658603620
 42      -0.099982769878
 43       0.031461114563
 44       0.020186116938
 45      -0.056697870238
 46       0.027430445184
 47       0.017805797579
 48      -0.049740609477
 49       0.003557710151
 50       0.001749037214
 51      -0.005616568941
 52      -0.002616191477
 53       0.003076296154
 54       0.002135645590
 55      -0.000444988943
 56      -0.001099999698
 57      -0.006531874299
 58       0.007726762020
 59       0.005250392912
 60      -0.001123458462
 61      -0.002817239353
 62      -0.000456407040
 63       0.001648593654
 64       0.001142026229
 65      -0.000460402057
 66      -0.001007446703
 67       0.000007774253
 68      -0.000281603120
 69      -0.001595019752
 70       0.000752767876
 71      -0.000176033716
 72      -0.000374877526
 73       0.060713826449
 74       0.091624507574
 75       0.059968019554
 76      -0.208551762720
 77       0.274416497977
 78      -0.099887197230
 79      -0.058928141559
 80       0.012528371693
 81       0.031211034250
 82      -0.051704408819
 83       0.011102604203
 84       0.027221108121
 85      -0.005824737524
 86       0.000952309115
 87       0.003511172902
 88       0.000942035264
 89       0.003180675954
 90      -0.000683692042
 91      -0.002956103686
 92       0.001422182100
 93       0.002333234137
 94       0.007987940770
 95      -0.001773326333
 96      -0.007380685363
 97       0.003467358688
 98      -0.001024708997
 99      -0.000060821496
100      -0.000034249409
101       0.001516110365
102      -0.000628015110
103       0.001038311492
104      -0.000836861043
105      -0.001585088667
106      -0.000373630443
107      -0.000271953281
108       0.000721346251
109      -0.018669901896
110      -0.021975410068
111       0.008191507987
112       0.001672372424
113      -0.001990336611
114       0.001549520645
 Sym=     1a
 Ene= -1.06059621107805E+00
 Spin= Alpha
 Occup= 2.000000
  1       0.000020466703
  2       0.000027894237
  3       0.000019484359
  4      -0.000078271429
  5       0.000052695124
  6      -0.000003225882
  7       0.130959146705
  8       0.011048376042
  9      -0.127296350504
 10       0.049683459587
 11       0.004190509184
 12      -0.048292314978
 13      -0.006749501269
 14      -0.000567189803
 15       0.006557400038
 16       0.011421229724
 17       0.000348522323
 18      -0.009047703532
 19      -0.008070396819
 20       0.008100500057
 21       0.003529578928
 22       0.000108750446
 23      -0.002796608102
 24      -0.002494665030
 25       0.002503045704
 26       0.000806057682
 27       0.002442664446
 28       0.001053655502
 29      -0.002769996305
 30      -0.000503673916
 31      -0.001322519612
 32       0.000335240228
 33      -0.000000571964
 34       0.000474421347
 35       0.000040307761
 36      -0.000461575662
 37      -0.068619277660
 38      -0.103673195784
 39      -0.068148724242
 40       0.238116645088
 41      -0.321401724479
 42       0.139456604028
 43      -0.016161011822
 44      -0.023374826700
 45       0.048498663523
 46      -0.018199310034
 47      -0.022705647483
 48       0.049226933653
 49      -0.001612481822
 50      -0.005222213898
 51       0.009144092269
 52       0.002579074710
 53      -0.002294301843
 54      -0.002445613643
 55      -0.000007308272
 56       0.000909186414
 57       0.008271321261
 58      -0.007578441482
 59      -0.006827668797
 60      -0.000123529663
 61       0.003874265916
 62       0.001016607466
 63      -0.001724587035
 64      -0.001355802736
 65      -0.000038460350
 66       0.001554546114
 67      -0.000504239767
 68       0.000357187051
 69       0.014222923051
 70      -0.001580752422
 71      -0.001113404219
 72       0.002996479644
 73       0.068669669316
 74       0.103749576066
 75       0.068198093493
 76      -0.238288845455
 77       0.321640572033
 78      -0.139552778410
 79      -0.050753452440
 80       0.017729431498
 81       0.016544498331
 82      -0.051474334325
 83       0.016829230429
 84       0.018495618812
 85      -0.009603763943
 86       0.004275518235
 87       0.001759095697
 88       0.001297193512
 89       0.002412883679
 90      -0.000625415609
 91      -0.002731849134
 92       0.001839807118
 93       0.004114646916
 94       0.007958743940
 95      -0.002985271348
 96      -0.008630001515
 97       0.004910009565
 98      -0.001397087736
 99       0.000606429214
100       0.000130896219
101       0.001376210247
102      -0.001281700289
103       0.001291665031
104      -0.001055786497
105      -0.014228005662
106      -0.003120185046
107       0.000716132444
108       0.001573986887
109      -0.000004608721
110      -0.000006039181
111       0.000004011750
112       0.002072682869
113       0.000175138767
114      -0.002015124603
 Sym=     1a
 Ene= -5.55433702616402E-01
 Spin= Alpha
 Occup= 2.000000
  1       0.064532226975
  2       0.090803818623
  3       0.061031900952
  4      -0.248767530286
  5       0.270476607746
  6      -0.085241057361
  7      -0.084892546424
  8       0.100945626467
  9      -0.078526267647
 10      -0.062989246062
 11       0.074900677657
 12      -0.058265895243
 13      -0.007404756601
 14       0.008808762221
 15      -0.006855065909
 16      -0.000257239582
 17       0.000129190557
 18       0.006631223212
 19      -0.001557135875
 20       0.006219313041
 21       0.001861722544
 22      -0.008044548586
 23       0.006640566788
 24       0.002459854767
 25       0.007586719831
 26       0.003172422072
 27      -0.002036612239
 28      -0.000672291453
 29      -0.000614447892
 30       0.004424732713
 31      -0.002726368872
 32       0.000198183146
 33      -0.010521680803
 34       0.000285188070
 35      -0.000338793929
 36       0.000263327181
 37      -0.032254542091
 38      -0.049483998136
 39      -0.032144132044
 40       0.119738299780
 41      -0.166354779238
 42       0.147773321424
 43       0.000389540040
 44       0.075544106700
 45      -0.112865309503
 46      -0.004556680854
 47       0.064245456272
 48      -0.091847815495
 49      -0.003729183014
 50       0.023564120116
 51      -0.031946501287
 52      -0.002710261787
 53       0.000767302077
 54       0.002998254638
 55       0.001084532015
 56      -0.000891783508
 57      -0.005251983636
 58      -0.001249949552
 59       0.006506224924
 60       0.003898937828
 61      -0.001638866557
 62      -0.000784864092
 63      -0.000236093549
 64       0.001451360884
 65       0.001274554874
 66      -0.000446544574
 67       0.000479536240
 68       0.000401660611
 69       0.031469271896
 70      -0.000724616583
 71       0.000147451069
 72       0.000393620719
 73      -0.032246479784
 74      -0.049471580747
 75      -0.032136164733
 76       0.119710369353
 77      -0.166301766206
 78       0.147731461140
 79      -0.118907469218
 80       0.065434943586
 81       0.003161614915
 82      -0.096889654197
 83       0.056420244349
 84      -0.002044368068
 85      -0.033749643591
 86       0.021017426619
 87      -0.002744803077
 88       0.002201593217
 89       0.000915110939
 90      -0.000893587204
 91      -0.002384559400
 92       0.002590739313
 93       0.005665224508
 94      -0.000919988354
 95      -0.002143986231
 96      -0.003812558349
 97       0.006101678387
 98      -0.000266872165
 99       0.001466015395
100      -0.000535859701
101      -0.000399366256
102      -0.000644490188
103       0.000226582578
104      -0.001362144502
105       0.031469225416
106       0.000398924790
107       0.000241773973
108      -0.000697803916
109      -0.130761353563
110      -0.183988164357
111      -0.069470617530
112       0.011459086107
113      -0.013626438050
114       0.010600423454
 Sym=     1a
 Ene= -4.28377255758335E-01
 Spin= Alpha
 Occup= 2.000000
  1      -0.025690207316
  2      -0.036492829102
  3      -0.024396108542
  4       0.103388161802
  5      -0.120644637321
  6       0.040812072605
  7      -0.129948824363
  8       0.154581209538
  9      -0.120291833520
 10      -0.099886631149
 11       0.118815872112
 12      -0.092456649354
 13      -0.014488052787
 14       0.017235625436
 15      -0.013413315637
 16       0.001671613241
 17      -0.006202934042
 18      -0.001699223264
 19       0.003427439156
 20      -0.000559223136
 21       0.002465835779
 22      -0.009527165767
 23       0.000266196124
 24       0.004620517222
 25       0.001840986282
 26      -0.003526845329
 27       0.004009526627
 28       0.002923906561
 29       0.002792075260
 30      -0.003738600138
 31       0.002409337931
 32      -0.003033352210
 33       0.007685525577
 34      -0.001221979264
 35       0.001454281200
 36      -0.001132165355
 37       0.021614968088
 38       0.033458424296
 39       0.021279756050
 40      -0.080629537051
 41       0.125950210784
 42      -0.138313623953
 43      -0.198767027210
 44       0.023636303626
 45       0.133017164404
 46      -0.171863726191
 47       0.026244966852
 48       0.106361390248
 49      -0.082234470207
 50       0.019607741145
 51       0.040390507585
 52       0.002201746656
 53      -0.006012802893
 54      -0.000371125812
 55       0.002481288277
 56       0.001587857794
 57       0.003713638151
 58      -0.015103554781
 59       0.001493405797
 60       0.007224941218
 61       0.003689797088
 62      -0.000342690325
 63      -0.003022236328
 64       0.000446483414
 65       0.002528890872
 66       0.001025054554
 67       0.000584254795
 68       0.001201839078
 69      -0.034619450135
 70      -0.008329605384
 71       0.001786295399
 72       0.004388817386
 73       0.021607825534
 74       0.033447220406
 75       0.021273000993
 76      -0.080605436427
 77       0.125895934927
 78      -0.138249807199
 79       0.135201839594
 80       0.051850811163
 81      -0.191669327585
 82       0.107791300274
 83       0.049867188465
 84      -0.165515326060
 85       0.040511487825
 86       0.029972865555
 87      -0.078936748067
 88       0.000918230207
 89      -0.006048360878
 90       0.000645259646
 91       0.003385735954
 92       0.000677918697
 93       0.004025865683
 94      -0.015088773796
 95       0.001244557229
 96       0.007000914516
 97       0.003910883675
 98       0.001306580722
 99       0.002162700285
100      -0.000949496762
101      -0.003004886637
102       0.000157422249
103      -0.001327176366
104      -0.000754381128
105      -0.034601163414
106       0.004418007634
107       0.002862838376
108      -0.008003887241
109      -0.077485832804
110      -0.115508162734
111      -0.067369389242
112       0.006525082006
113      -0.007758198435
114       0.006034610047
 Sym=     1a
 Ene= -3.86579301717667E-01
 Spin= Alpha
 Occup= 2.000000
  1       0.000011018973
  2       0.000015305721
  3       0.000010828870
  4      -0.000043614545
  5       0.000064711794
  6      -0.000032838605
  7       0.187983239450
  8       0.015870461594
  9      -0.182742289332
 10       0.125690357617
 11       0.010609244040
 12      -0.122182924658
 13       0.025983112607
 14       0.002195271413
 15      -0.025261165672
 16       0.007700763871
 17       0.000228570505
 18      -0.006099171318
 19      -0.005437148267
 20       0.005461584665
 21      -0.001718244856
 22      -0.000055952178
 23       0.001363089543
 24       0.001216183491
 25      -0.001217528481
 26       0.001436588569
 27       0.004430675748
 28       0.000478414911
 29      -0.004886470475
 30      -0.000834966232
 31      -0.002044391740
 32      -0.000444939386
 33      -0.000004520352
 34       0.003255844041
 35       0.000275183726
 36      -0.003165528282
 37       0.023814311012
 38       0.037071491892
 39       0.023198603565
 40      -0.090644027657
 41       0.131783401030
 42      -0.154482910550
 43      -0.055320237017
 44      -0.127761400471
 45       0.237142522408
 46      -0.047369853064
 47      -0.109602855023
 48       0.203363486859
 49      -0.017575216773
 50      -0.052361556026
 51       0.092876165107
 52       0.005029425326
 53      -0.003723139855
 54      -0.004839943009
 55      -0.000538092397
 56       0.001867703902
 57       0.012058635404
 58      -0.008965948980
 59      -0.010796424315
 60      -0.001467931802
 61       0.005270306690
 62       0.001584884771
 63      -0.002080952036
 64      -0.002136841751
 65      -0.000450704163
 66       0.002182883457
 67      -0.000849532864
 68       0.000281836737
 69      -0.052438907080
 70       0.000461300348
 71      -0.004894042735
 72       0.006900066542
 73      -0.023826621669
 74      -0.037090337526
 75      -0.023211241180
 76       0.090695835642
 77      -0.131832385751
 78       0.154547048651
 79      -0.248620195277
 80       0.102057648675
 81       0.058389055194
 82      -0.213214899953
 83       0.087567246579
 84       0.050009477270
 85      -0.097467983416
 86       0.042626514475
 87       0.018993209843
 88       0.002920682632
 89       0.003964246841
 90      -0.001458993608
 91      -0.005078231143
 92       0.003769590660
 93       0.007038447144
 94       0.009547702145
 95      -0.004334765412
 96      -0.012024889460
 97       0.008271286457
 98      -0.001886290014
 99       0.001251821504
100      -0.000022693325
101       0.001559583018
102      -0.001909532571
103       0.001740022916
104      -0.001717829443
105       0.052460249813
106      -0.007284553244
107       0.004314889687
108      -0.000262432544
109      -0.000004192882
110      -0.000007774411
111      -0.000002302290
112       0.004019462665
113       0.000340341604
114      -0.003908888891
 Sym=     1a
 Ene= -3.40503221218585E-01
 Spin= Alpha
 Occup= 2.000000
  1      -0.000000010179
  2      -0.000000014565
  3      -0.000000009264
  4       0.000000037482
  5      -0.000000046110
  6       0.000000007988
  7      -0.098224888206
  8      -0.172885446004
  9      -0.116056355221
 10      -0.088306902565
 11      -0.155428797972
 12      -0.104337883528
 13      -0.030520733835
 14      -0.053719535649
 15      -0.036061394991
 16       0.004919212291
 17       0.005468010113
 18       0.000583308482
 19       0.008027040139
 20       0.001477665130
 21       0.003868812389
 22       0.004296353155
 23       0.000461065276
 24       0.006306150062
 25       0.001158042153
 26      -0.004591729637
 27       0.003948367230
 28      -0.001371175687
 29      -0.000299312049
 30       0.006238359890
 31       0.002472853641
 32       0.003235930757
 33      -0.000000011395
 34      -0.004073190009
 35      -0.007169226246
 36      -0.004812627686
 37       0.000000000558
 38       0.000000000930
 39       0.000000000423
 40      -0.000000001480
 41       0.000000009931
 42       0.000000015451
 43      -0.105865379221
 44      -0.186333510176
 45      -0.125083968663
 46      -0.096800087763
 47      -0.170377702188
 48      -0.114372982737
 49      -0.055608169199
 50      -0.097875847886
 51      -0.065703145413
 52      -0.004769367323
 53      -0.000896509359
 54      -0.003068210278
 55      -0.000326235970
 56       0.003011098928
 57      -0.015891163950
 58      -0.003654387239
 59      -0.009843921602
 60      -0.002216514292
 61       0.009359584676
 62      -0.003566076498
 63       0.000966718788
 64      -0.000830977377
 65      -0.000193668574
 66       0.002070817242
 67      -0.001193635563
 68       0.000944437828
 69       0.000000017835
 70      -0.004657755541
 71      -0.008198103549
 72      -0.005503314242
 73       0.000000000761
 74       0.000000001201
 75       0.000000000684
 76      -0.000000001382
 77       0.000000013247
 78       0.000000015633
 79      -0.105827884058
 80      -0.186267384491
 81      -0.125039491488
 82      -0.096766300173
 83      -0.170318111507
 84      -0.114332898372
 85      -0.055588499047
 86      -0.097841188819
 87      -0.065679849872
 88       0.002471876349
 89      -0.001657767240
 90       0.002796049553
 91      -0.003423551969
 92      -0.003701712498
 93       0.007141491993
 94      -0.006076000477
 95       0.008809013691
 96      -0.012068731302
 97      -0.011992493749
 98       0.000360634031
 99       0.002406369922
100      -0.000642451579
101       0.000683021024