[Molden Format]
[Title]
 Molden file created by orca_2mkl for BaseName=/data01/Nikolayandreadi/heavy/cations/Bk_3+

[Atoms] AU
Bk   1  97          0.0415890928         1.5388172189        -3.6027401976 
[GTO]
  1 0
s   9 1.0 
 65541743.5420790017     19019.9476254555
 29791701.6100360006     -7028.1620515347
 13541682.5500160009     10729.5808283425
  6155310.2500069998       219.6760147465
  2797868.2954580002      4877.6731401385
  1271758.3161170001      2107.2533157329
   578071.9618710000      2974.4100271431
   262759.9826690000      2147.5113940620
   119436.3557590000      2194.9432114789
s   1 1.0 
    54289.2526180000      2534.8104531055
s   1 1.0 
    24676.9330080000      1403.2287650284
s   1 1.0 
    11216.7877310000       776.8040267523
s   1 1.0 
     5098.5398780000       430.0257456502
s   1 1.0 
     2317.5181260000       238.0550763439
s   1 1.0 
     1053.4173300000       131.7833175177
s   1 1.0 
      478.8260590000        72.9530453213
s   1 1.0 
      217.6482090000        40.3855884746
s   1 1.0 
       98.9310040000        22.3567877953
s   1 1.0 
       44.9686380000        12.3763445881
s   1 1.0 
       20.4402900000         6.8513378232
s   1 1.0 
        9.2910410000         3.7927863092
s   1 1.0 
        4.2232000000         2.0996230360
s   1 1.0 
        1.9196370000         1.1623165624
s   1 1.0 
        0.8725620000         0.6434389010
s   1 1.0 
        0.3966190000         0.3561969764
s   1 1.0 
        0.1802810000         0.1971844035
s   1 1.0 
        0.0819460000         0.1091580859
s   1 1.0 
        0.0372480000         0.0604278735
s   1 1.0 
        0.0169310000         0.0334519970
p   8 1.0 
   939440.7605340000    163603.5624050141
   391433.6502220000     13648.4726743925
   163097.3542590000     46752.9833864585
    67957.2309410000     22720.7526078154
    28315.5128920000     21690.6091014626
    11798.1303720000     17031.9304440090
     4915.8876550000     15584.1319316186
     2048.2865230000     13766.5970326100
p   1 1.0 
      853.4527180000      6575.2825548909
p   1 1.0 
      355.6052990000      2201.1536933731
p   1 1.0 
      148.1688750000       736.8622658072
p   1 1.0 
       61.7370310000       246.6733675837
p   1 1.0 
       25.7237630000        82.5768310483
p   1 1.0 
       10.7182350000        27.6435733477
p   1 1.0 
        4.4659310000         9.2540128644
p   1 1.0 
        1.8608050000         3.0978912523
p   1 1.0 
        0.7753350000         1.0370550829
p   1 1.0 
        0.3230560000         0.3471661332
p   1 1.0 
        0.1346070000         0.1162183337
p   1 1.0 
        0.0560860000         0.0389052466
d   7 1.0 
    46590.6458960000     73719.3143163267
    18636.2583580000     35601.7129839961
     7454.5033430000     38854.2461510460
     2981.8013370000     35020.0815522118
     1192.7205350000     36710.2669542399
      477.0882140000     32863.1592484308
      190.8352860000     22220.3546355048
d   1 1.0 
       76.3341140000      5619.8892174274
d   1 1.0 
       30.5336460000      1130.6618776183
d   1 1.0 
       12.2134580000       227.4771137761
d   1 1.0 
        4.8853830000        45.7659690972
d   1 1.0 
        1.9541530000         9.2076238684
d   1 1.0 
        0.7816610000         1.8524750201
d   1 1.0 
        0.3126650000         0.3726994945
d   1 1.0 
        0.1250660000         0.0749831686
d   1 1.0 
        0.0500260000         0.0150856038
f   6 1.0 
     5327.8457110000     85722.6979454394
     2049.1714270000     74961.5100018759
      788.1428570000     80222.5980300722
      303.1318680000     79328.9952709062
      116.5891800000     58645.1115196242
       44.8419920000     24668.5776073917
f   1 1.0 
       17.2469200000      3456.2174950412
f   1 1.0 
        6.6334310000       402.6345744753
f   1 1.0 
        2.5513200000        46.9052202571
f   1 1.0 
        0.9812770000         5.4642583341
f   1 1.0 
        0.3774140000         0.6365618290
f   1 1.0 
        0.1451590000         0.0741564629

[5D]
[7F]
[9G]
[MO]
 Sym=     1a
 Ene= -4.84946953356647E+03
 Spin= Alpha
 Occup= 1.000000
  1       0.097409842707
  2       0.071186806255
  3       0.119619521024
  4       0.183736146698
  5       0.265428503313
  6       0.293404780478
  7       0.181424652799
  8       0.029056799620
  9       0.001002190044
 10      -0.000730491629
 11       0.000526688125
 12      -0.000381521972
 13       0.000268310157
 14      -0.000180435307
 15       0.000119326425
 16      -0.000078397222
 17       0.000050545354
 18      -0.000031262565
 19       0.000017664125
 20      -0.000008089656
 21       0.000002179252
 22       0.000000000000
 23       0.000000000000
 24      -0.000000000000
 25      -0.000000000000
 26      -0.000000000000
 27       0.000000000000
 28       0.000000000000
 29       0.000000000000
 30      -0.000000000000
 31      -0.000000000000
 32      -0.000000000000
 33       0.000000000000
 34      -0.000000000000
 35       0.000000000000
 36      -0.000000000001
 37       0.000000000000
 38      -0.000000000000
 39       0.000000000001
 40      -0.000000000000
 41       0.000000000000
 42      -0.000000000001
 43       0.000000000000
 44      -0.000000000000
 45       0.000000000001
 46      -0.000000000000
 47      -0.000000000000
 48      -0.000000000000
 49       0.000000000000
 50       0.000000000000
 51       0.000000000000
 52      -0.000000000000
 53      -0.000000000000
 54      -0.000000000000
 55       0.000000000000
 56      -0.000000000000
 57       0.000000000000
 58      -0.000000000000
 59       0.000000000000
 60      -0.000000000000
 61      -0.000000039914
 62       0.000000028172
 63       0.000000011033
 64      -0.000000021283
 65       0.000000011513
 66       0.000000032362
 67      -0.000000022869
 68      -0.000000008917
 69       0.000000017199
 70      -0.000000009278
 71      -0.000000021278
 72       0.000000015024
 73       0.000000005876
 74      -0.000000011335
 75       0.000000006127
 76       0.000000012299
 77      -0.000000008688
 78      -0.000000003393
 79       0.000000006544
 80      -0.000000003534
 81      -0.000000006578
 82       0.000000004649
 83       0.000000001812
 84      -0.000000003495
 85       0.000000001885
 86       0.000000003501
 87      -0.000000002472
 88      -0.000000000967
 89       0.000000001866
 90      -0.000000001009
 91      -0.000000002310
 92       0.000000001632
 93       0.000000000637
 94      -0.000000001228
 95       0.000000000662
 96       0.000000001158
 97      -0.000000000818
 98      -0.000000000319
 99       0.000000000616
100      -0.000000000333
101      -0.000000000551
102       0.000000000389
103       0.000000000152
104      -0.000000000293
105       0.000000000158
106       0.000000000186
107      -0.000000000131
108      -0.000000000051
109       0.000000000099
110      -0.000000000054
111      -0.000000000000
112       0.000000000000
113      -0.000000000000
114       0.000000000000
115      -0.000000000000
116       0.000000000000
117       0.000000000001
118       0.000000000000
119      -0.000000000000
120       0.000000000000
121      -0.000000000000
122       0.000000000000
123      -0.000000000000
124      -0.000000000000
125       0.000000000000
126       0.000000000000
127      -0.000000000000
128       0.000000000000
129       0.000000000000
130       0.000000000000
131       0.000000000001
132      -0.000000000000
133      -0.000000000000
134       0.000000000000
135      -0.000000000000
136       0.000000000000
137      -0.000000000000
138      -0.000000000000
139      -0.000000000000
140       0.000000000000
141      -0.000000000000
142      -0.000000000000
143      -0.000000000000
144       0.000000000000
145       0.000000000000
146       0.000000000000
147      -0.000000000000
148      -0.000000000000
149       0.000000000000
150       0.000000000000
151      -0.000000000000
152       0.000000000000
153      -0.000000000000
154      -0.000000000000
155       0.000000000000
156      -0.000000000000
157      -0.000000000000
158       0.000000000000
159      -0.000000000000
 Sym=     1a
 Ene= -9.34833844065261E+02
 Spin= Alpha
 Occup= 1.000000
  1       0.042299104316
  2       0.033466675786
  3       0.054683093010
  4       0.092279836288
  5       0.141740593832
  6       0.170641846977
  7       0.045351197789
  8      -0.398098962788
  9      -0.589954487010
 10      -0.146164854858
 11       0.001278931936
 12      -0.000678670083
 13       0.000201839119
 14      -0.000003181714
 15      -0.000048300784
 16       0.000041359036
 17      -0.000028813224
 18       0.000018834576
 19      -0.000010843294
 20       0.000005008808
 21      -0.000001354479
 22       0.000000000000
 23      -0.000000000000
 24      -0.000000000000
 25       0.000000000000
 26      -0.000000000000
 27      -0.000000000001
 28      -0.000000000000
 29      -0.000000000000
 30      -0.000000000001
 31       0.000000000000
 32      -0.000000000000
 33      -0.000000000004
 34       0.000000000000
 35      -0.000000000000
 36       0.000000000006
 37      -0.000000000003
 38       0.000000000000
 39      -0.000000000017
 40       0.000000000003
 41       0.000000000000
 42       0.000000000018
 43      -0.000000000002
 44      -0.000000000000
 45      -0.000000000012
 46       0.000000000001
 47       0.000000000000
 48       0.000000000007
 49      -0.000000000001
 50      -0.000000000000
 51      -0.000000000004
 52       0.000000000000
 53       0.000000000000
 54       0.000000000002
 55      -0.000000000000
 56       0.000000000000
 57      -0.000000000001
 58       0.000000000000
 59      -0.000000000000
 60       0.000000000000
 61       0.000002982992
 62      -0.000002106892
 63      -0.000000823059
 64       0.000001587597
 65      -0.000000857484
 66       0.000001066781
 67      -0.000000753430
 68      -0.000000294385
 69       0.000000567833
 70      -0.000000306727
 71      -0.000000264125
 72       0.000000186231
 73       0.000000073208
 74      -0.000000141241
 75       0.000000076587
 76       0.000000136526
 77      -0.000000096332
 78      -0.000000037770
 79       0.000000072864
 80      -0.000000039446
 81      -0.000000068534
 82       0.000000048410
 83       0.000000018906
 84      -0.000000036468
 85       0.000000019694
 86       0.000000035169
 87      -0.000000024784
 88      -0.000000009762
 89       0.000000018837
 90      -0.000000010229
 91      -0.000000027821
 92       0.000000019647
 93       0.000000007680
 94      -0.000000014817
 95       0.000000008008
 96       0.000000013294
 97      -0.000000009380
 98      -0.000000003679
 99       0.000000007100
100      -0.000000003846
101      -0.000000006276
102       0.000000004431
103       0.000000001735
104      -0.000000003348
105       0.000000001812
106       0.000000002119
107      -0.000000001497
108      -0.000000000585
109       0.000000001129
110      -0.000000000610
111      -0.000000000000
112      -0.000000000000
113       0.000000000000
114       0.000000000000
115       0.000000000000
116       0.000000000000
117      -0.000000000000
118       0.000000000000
119       0.000000000000
120      -0.000000000000
121      -0.000000000000
122      -0.000000000000
123      -0.000000000000
124       0.000000000000
125      -0.000000000000
126       0.000000000000
127       0.000000000000
128       0.000000000000
129       0.000000000000
130       0.000000000000
131       0.000000000001
132       0.000000000000
133       0.000000000000
134      -0.000000000000
135      -0.000000000000
136      -0.000000000000
137      -0.000000000000
138      -0.000000000001
139       0.000000000000
140      -0.000000000000
141       0.000000000000
142       0.000000000000
143       0.000000000000
144      -0.000000000000
145      -0.000000000000
146      -0.000000000000
147       0.000000000001
148      -0.000000000000
149      -0.000000000000
150       0.000000000000
151       0.000000000000
152       0.000000000001
153       0.000000000001
154      -0.000000000001
155       0.000000000000
156       0.000000000000
157      -0.000000000000
158      -0.000000000000
159      -0.000000000000
 Sym=     1a
 Ene= -7.70544172899325E+02
 Spin= Alpha
 Occup= 1.000000
  1      -0.000000000000
  2      -0.000000000000
  3      -0.000000000000
  4      -0.000000000000
  5      -0.000000000000
  6      -0.000000000000
  7       0.000000000000
  8      -0.000000000000
  9       0.000000000005
 10      -0.000000000008
 11       0.000000000013
 12      -0.000000000017
 13       0.000000000024
 14      -0.000000000041
 15       0.000000000047
 16      -0.000000000032
 17       0.000000000017
 18      -0.000000000012
 19       0.000000000014
 20      -0.000000000009
 21       0.000000000004
 22      -0.062143995473
 23      -0.172807424927
 24      -0.037717671472
 25      -0.102096812701
 26      -0.283906549010
 27      -0.061966631059
 28      -0.150431774140
 29      -0.418314389312
 30      -0.091303048545
 31      -0.077177020225
 32      -0.214610631746
 33      -0.046841814252
 34      -0.002264502130
 35      -0.006297032867
 36      -0.001374416739
 37      -0.001443544796
 38      -0.004014149024
 39      -0.000876144959
 40       0.000989383800
 41       0.002751237108
 42       0.000600496521
 43      -0.000607708621
 44      -0.001689890713
 45      -0.000368842613
 46       0.000364739354
 47       0.001014251924
 48       0.000221374864
 49      -0.000215823398
 50      -0.000600152663
 51      -0.000130991829
 52       0.000120667852
 53       0.000335548103
 54       0.000073238132
 55      -0.000058331394
 56      -0.000162205491
 57      -0.000035403648
 58       0.000018259686
 59       0.000050775766
 60       0.000011082530
 61       0.000000000001
 62       0.000000000000
 63       0.000000000001
 64       0.000000000000
 65      -0.000000000001
 66      -0.000000000001
 67      -0.000000000000
 68      -0.000000000001
 69       0.000000000000
 70       0.000000000001
 71      -0.000000000000
 72      -0.000000000001
 73      -0.000000000000
 74      -0.000000000001
 75      -0.000000000002
 76       0.000000000001
 77       0.000000000001
 78       0.000000000000
 79       0.000000000001
 80       0.000000000000
 81      -0.000000000001
 82      -0.000000000002
 83      -0.000000000000
 84      -0.000000000001
 85       0.000000000000
 86       0.000000000001
 87       0.000000000001
 88       0.000000000000
 89       0.000000000002
 90      -0.000000000000
 91      -0.000000000000
 92      -0.000000000000
 93      -0.000000000000
 94      -0.000000000001
 95       0.000000000000
 96      -0.000000000001
 97      -0.000000000000
 98       0.000000000000
 99       0.000000000006
100       0.000000000001
101       0.000000000001
102       0.000000000000
103       0.000000000000
104      -0.000000000005
105      -0.000000000001
106      -0.000000000000
107      -0.000000000000
108      -0.000000000000
109       0.000000000001
110       0.000000000000
111       0.000000819916
112       0.000000227281
113       0.000001454795
114       0.000000172442
115      -0.000000967373
116      -0.000000829543
117      -0.000000644494
118      -0.000000491551
119      -0.000000138424
120      -0.000000870422
121      -0.000000102847
122       0.000000582316
123       0.000000489633
124       0.000000384710
125       0.000000279214
126       0.000000079184
127       0.000000493972
128       0.000000058304
129      -0.000000331361
130      -0.000000276199
131      -0.000000218113
132      -0.000000143852
133      -0.000000040658
134      -0.000000254610
135      -0.000000030062
136       0.000000170574
137       0.000000142767
138       0.000000112472
139       0.000000069929
140       0.000000019746
141       0.000000123787
142       0.000000014614
143      -0.000000082902
144      -0.000000069460
145      -0.000000054686
146      -0.000000032380
147      -0.000000009159
148      -0.000000057305
149      -0.000000006765
150       0.000000038404
151       0.000000032110
152       0.000000025311
153       0.000000011236
154       0.000000003179
155       0.000000019884
156       0.000000002347
157      -0.000000013328
158      -0.000000011138
159      -0.000000008782
 Sym=     1a
 Ene= -7.70542462918758E+02
 Spin= Alpha
 Occup= 1.000000
  1       0.000000000000
  2       0.000000000000
  3      -0.000000000000
  4       0.000000000000
  5      -0.000000000000
  6       0.000000000001
  7      -0.000000000001
  8       0.000000000002
  9      -0.000000000006
 10       0.000000000011
 11      -0.000000000019
 12       0.000000000025
 13      -0.000000000038
 14       0.000000000067
 15      -0.000000000077
 16       0.000000000053
 17      -0.000000000026
 18       0.000000000018
 19      -0.000000000024
 20       0.000000000018
 21      -0.000000000008
 22       0.159312741055
 23      -0.072053854379
 24       0.067637016625
 25       0.261736100795
 26      -0.118377819424
 27       0.111121363448
 28       0.385647868136
 29      -0.174420546330
 30       0.163728720605
 31       0.197849311852
 32      -0.089483147495
 33       0.083997909442
 34       0.005804202188
 35      -0.002625120478
 36       0.002464202905
 37       0.003700899365
 38      -0.001673840161
 39       0.001571235245
 40      -0.002536492494
 41       0.001147203043
 42      -0.001076880516
 43       0.001557967551
 44      -0.000704636478
 45       0.000661442873
 46      -0.000935078127
 47       0.000422916490
 48      -0.000396992064
 49       0.000553316277
 50      -0.000250253505
 51       0.000234913173
 52      -0.000309359541
 53       0.000139916919
 54      -0.000131340130
 55       0.000149546235
 56      -0.000067636670
 57       0.000063490595
 58      -0.000046813048
 59       0.000021172575
 60      -0.000019874708
 61       0.000000000002
 62       0.000000000000
 63       0.000000000001
 64       0.000000000000
 65       0.000000000000
 66      -0.000000000001
 67      -0.000000000001
 68      -0.000000000000
 69      -0.000000000000
 70      -0.000000000001
 71       0.000000000002
 72       0.000000000003
 73       0.000000000002
 74       0.000000000002
 75       0.000000000002
 76      -0.000000000003
 77      -0.000000000004
 78      -0.000000000001
 79      -0.000000000002
 80       0.000000000001
 81       0.000000000005
 82       0.000000000005
 83       0.000000000001
 84       0.000000000003
 85      -0.000000000002
 86      -0.000000000004
 87      -0.000000000003
 88      -0.000000000001
 89      -0.000000000003
 90       0.000000000002
 91       0.000000000001
 92       0.000000000002
 93       0.000000000001
 94       0.000000000002
 95      -0.000000000001
 96       0.000000000003
 97      -0.000000000000
 98      -0.000000000000
 99      -0.000000000015
100      -0.000000000002
101      -0.000000000002
102      -0.000000000000
103      -0.000000000000
104       0.000000000012
105       0.000000000002
106       0.000000000001
107       0.000000000000
108       0.000000000000
109      -0.000000000003
110      -0.000000000001
111      -0.000001072592
112      -0.000000532211
113       0.000000762486
114       0.000000665527
115       0.000000229148
116       0.000000610136
117      -0.000000782288
118       0.000000643972
119       0.000000319580
120      -0.000000452311
121      -0.000000397954
122      -0.000000129695
123      -0.000000361386
124       0.000000464303
125      -0.000000365968
126      -0.000000181631
127       0.000000255671
128       0.000000225738
129       0.000000071737
130       0.000000204147
131      -0.000000262550
132       0.000000188522
133       0.000000093560
134      -0.000000132040
135      -0.000000116390
136      -0.000000037431
137      -0.000000105461
138       0.000000135559
139      -0.000000091669
140      -0.000000045493
141       0.000000064245
142       0.000000056609
143       0.000000018256
144       0.000000051315
145      -0.000000065948
146       0.000000042443
147       0.000000021064
148      -0.000000029710
149      -0.000000026199
150      -0.000000008402
151      -0.000000023727
152       0.000000030501
153      -0.000000014729
154      -0.000000007310
155       0.000000010309
156       0.000000009091
157       0.000000002912
158       0.000000008231
159      -0.000000010582
 Sym=     1a
 Ene= -7.70539712937084E+02
 Spin= Alpha
 Occup= 1.000000
  1       0.000000000000
  2       0.000000000000
  3       0.000000000000
  4       0.000000000001
  5       0.000000000000
  6       0.000000000002
  7      -0.000000000003
  8       0.000000000004
  9      -0.000000000016
 10       0.000000000026
 11      -0.000000000046
 12       0.000000000061
 13      -0.000000000089
 14       0.000000000156
 15      -0.000000000177
 16       0.000000000130
 17      -0.000000000082
 18       0.000000000055
 19      -0.000000000048
 20       0.000000000020
 21      -0.000000000004
 22      -0.076841881063
 23      -0.009631563465
 24       0.170733423862
 25      -0.126244153290
 26      -0.015823774190
 27       0.280499334940
 28      -0.186010922065
 29      -0.023315098185
 30       0.413293911613
 31      -0.095427671042
 32      -0.011961155280
 33       0.212028815301
 34      -0.002798715517
 35      -0.000350798357
 36       0.006218409498
 37      -0.001785235900
 38      -0.000223766169
 39       0.003966579584
 40       0.001223514461
 41       0.000153358533
 42      -0.002718502063
 43      -0.000751493534
 44      -0.000094194213
 45       0.001669728305
 46       0.000451043288
 47       0.000056535001
 48      -0.001002163981
 49      -0.000266906361
 50      -0.000033454786
 51       0.000593033863
 52       0.000149225959
 53       0.000018704400
 54      -0.000331562147
 55      -0.000072137036
 56      -0.000009041857
 57       0.000160279824
 58       0.000022581376
 59       0.000002830412
 60      -0.000050173104
 61      -0.000000000003
 62       0.000000000000
 63      -0.000000000000
 64      -0.000000000000
 65       0.000000000000
 66       0.000000000002
 67       0.000000000000
 68       0.000000000001
 69      -0.000000000000
 70      -0.000000000003
 71      -0.000000000000
 72      -0.000000000002
 73      -0.000000000002
 74      -0.000000000002
 75       0.000000000003
 76       0.000000000001
 77       0.000000000003
 78       0.000000000001
 79       0.000000000001
 80      -0.000000000003
 81      -0.000000000002
 82      -0.000000000004
 83      -0.000000000000
 84       0.000000000003
 85       0.000000000004
 86       0.000000000002
 87       0.000000000003
 88       0.000000000000
 89      -0.000000000006
 90      -0.000000000004
 91      -0.000000000001
 92      -0.000000000001
 93      -0.000000000000
 94       0.000000000003
 95       0.000000000002
 96      -0.000000000002
 97       0.000000000000
 98      -0.000000000000
 99       0.000000000008
100       0.000000000001
101       0.000000000002
102      -0.000000000000
103       0.000000000000
104      -0.000000000008
105      -0.000000000001
106      -0.000000000001
107       0.000000000000
108      -0.000000000000
109       0.000000000004
110       0.000000000000
111      -0.000001808288
112       0.000002273001
113       0.000000701188
114      -0.000001322228
115       0.000000198176
116      -0.000000540223
117       0.000000128367
118       0.000001053467
119      -0.000001321357
120      -0.000000411033
121       0.000000772918
122      -0.000000115778
123       0.000000314108
124      -0.000000077541
125      -0.000000590520
126       0.000000739938
127       0.000000231071
128      -0.000000433948
129       0.000000064993
130      -0.000000175920
131       0.000000044189
132       0.000000306221
133      -0.000000383894
134      -0.000000119656
135       0.000000224854
136      -0.000000033677
137       0.000000091262
138      -0.000000022732
139      -0.000000149176
140       0.000000187033
141       0.000000058274
142      -0.000000109520
143       0.000000016404
144      -0.000000044464
145       0.000000011054
146       0.000000068834
147      -0.000000086279
148      -0.000000026907
149       0.000000050556
150      -0.000000007571
151       0.000000020512
152      -0.000000005121
153      -0.000000023872
154       0.000000029921
155       0.000000009332
156      -0.000000017535
157       0.000000002626
158      -0.000000007113
159       0.000000001777
 Sym=     1a
 Ene= -2.44301776652972E+02
 Spin= Alpha
 Occup= 1.000000
  1       0.020842457991
  2       0.016745632780
  3       0.027110589182
  4       0.046964165080
  5       0.071959071261
  6       0.090442606486
  7       0.008099430903
  8      -0.327031518960
  9      -0.675332037874
 10       0.292314756579
 11       0.956886553545
 12       0.102566304037
 13       0.023520839896
 14      -0.017787840743
 15       0.012343432377
 16      -0.008371043050
 17       0.005483178691
 18      -0.003416519066
 19       0.001937946459
 20      -0.000889185954
 21       0.000239745657
 22      -0.000000000006
 23      -0.000000000001
 24      -0.000000000020
 25      -0.000000000011
 26      -0.000000000002
 27      -0.000000000035
 28      -0.000000000013
 29      -0.000000000003
 30      -0.000000000054
 31       0.000000000007
 32       0.000000000000
 33       0.000000000026
 34       0.000000000030
 35       0.000000000010
 36       0.000000000090
 37       0.000000000040
 38       0.000000000001
 39       0.000000000200
 40      -0.000000000034
 41       0.000000000001
 42      -0.000000000182
 43       0.000000000025
 44      -0.000000000001
 45       0.000000000121
 46      -0.000000000016
 47       0.000000000000
 48      -0.000000000071
 49       0.000000000010
 50      -0.000000000000
 51       0.000000000040
 52      -0.000000000006
 53       0.000000000001
 54      -0.000000000022
 55       0.000000000003
 56      -0.000000000002
 57       0.000000000010
 58      -0.000000000001
 59       0.000000000001
 60      -0.000000000002
 61      -0.000029598402
 62       0.000020896266
 63       0.000008176145
 64      -0.000015771795
 65       0.000008527114
 66      -0.000064082548
 67       0.000045250961
 68       0.000017692514
 69      -0.000034127802
 70       0.000018442750
 71      -0.000033949048
 72       0.000023958394
 73       0.000009387763
 74      -0.000018109649
 75       0.000009799819
 76       0.000003297821
 77      -0.000002326709
 78      -0.000000912597
 79       0.000001760482
 80      -0.000000953242
 81      -0.000001992345
 82       0.000001406758
 83       0.000000550203
 84      -0.000001061287
 85       0.000000573627
 86       0.000001071252
 87      -0.000000755726
 88      -0.000000296522
 89       0.000000572032
 90      -0.000000309813
 91      -0.000000680683
 92       0.000000480531
 93       0.000000188067
 94      -0.000000362774
 95       0.000000196168
 96       0.000000341332
 97      -0.000000240854
 98      -0.000000094422
 99       0.000000182142
100      -0.000000098604
101      -0.000000162697
102       0.000000114809
103       0.000000045004
104      -0.000000086813
105       0.000000047000
106       0.000000054909
107      -0.000000038753
108      -0.000000015184
109       0.000000029291
110      -0.000000015855
111       0.000000000000
112       0.000000000000
113       0.000000000000
114      -0.000000000000
115      -0.000000000000
116      -0.000000000001
117      -0.000000000003
118      -0.000000000000
119      -0.000000000000
120       0.000000000001
121       0.000000000000
122       0.000000000000
123       0.000000000000
124       0.000000000002
125       0.000000000002
126      -0.000000000000
127      -0.000000000000
128      -0.000000000002
129       0.000000000000
130      -0.000000000000
131       0.000000000001
132      -0.000000000001
133      -0.000000000000
134       0.000000000000
135       0.000000000001
136       0.000000000000
137       0.000000000000
138      -0.000000000001
139      -0.000000000001
140       0.000000000001
141      -0.000000000001
142      -0.000000000000
143      -0.000000000000
144      -0.000000000001
145      -0.000000000000
146       0.000000000005
147      -0.000000000006
148       0.000000000001
149       0.000000000002
150      -0.000000000002
151      -0.000000000002
152       0.000000000001
153      -0.000000000012
154       0.000000000007
155      -0.000000000002
156      -0.000000000007
157       0.000000000003
158       0.000000000003
159      -0.000000000000
 Sym=     1a
 Ene= -1.98484540538731E+02
 Spin= Alpha
 Occup= 1.000000
  1       0.000000000002
  2       0.000000000001
  3       0.000000000002
  4       0.000000000004
  5       0.000000000006
  6       0.000000000007
  7       0.000000000001
  8      -0.000000000030
  9      -0.000000000055
 10       0.000000000019
 11       0.000000000128
 12      -0.000000000088
 13       0.000000000233
 14      -0.000000000563
 15       0.000000000681
 16      -0.000000000498
 17       0.000000000298
 18      -0.000000000222
 19       0.000000000225
 20      -0.000000000114
 21       0.000000000031
 22       0.035108249557
 23       0.097627756954
 24       0.021308662441
 25       0.061902541952
 26       0.172136361029
 27       0.037571237179
 28       0.091640484883
 29       0.254830562539
 30       0.055620436277
 31      -0.047485498680
 32      -0.132045965895
 33      -0.028820931661
 34      -0.246356375103
 35      -0.685058942378
 36      -0.149523969519
 37      -0.078457852905
 38      -0.218172774150
 39      -0.047619346681
 40       0.002334979156
 41       0.006493026040
 42       0.001417196268
 43      -0.001597112397
 44      -0.004441192474
 45      -0.000969354053
 46       0.000895799333
 47       0.002491006215
 48       0.000543697859
 49      -0.000494727034
 50      -0.001375718846
 51      -0.000300270376
 52       0.000271606105
 53       0.000755272285
 54       0.000164849015
 55      -0.000130518449
 56      -0.000362940857
 57      -0.000079217041
 58       0.000040775509
 59       0.000113386980
 60       0.000024748313
 61       0.000000000019
 62      -0.000000000003
 63      -0.000000000003
 64      -0.000000000003