[Molden Format]
[Title]
 Molden file created by orca_2mkl for BaseName=/home/nikolayandreadi_2125/_scratch/CC_1/PuF4

[Atoms] AU
Pu   1  94        -15.3461768055         9.4915236734       -63.7690275974 
F    2   9        -13.2481386009        10.9520741050       -66.5924390682 
F    3   9        -16.9974421780        11.8655091367       -61.2902284741 
F    4   9        -18.2661041488         7.8370665534       -65.5684739550 
F    5   9        -12.9096092818         7.4140022255       -61.7055260277 
[GTO]
  1 0
s   9 1.0 
 61522220.6225290000     17063.6754636881
 27964645.7375129983     -6251.6280422765
 12711202.6079610009      9671.6986576994
  5777819.3672550004       289.2210734849
  2626281.5305699999      4464.1627617163
  1193764.3320770001      2006.5541689788
   542620.1509440000      2788.3025657130
   246645.5231560000      2062.8458110195
   112111.6014350000      2113.6106705618
s   1 1.0 
    50959.8188340000      2417.3024864446
s   1 1.0 
    23163.5540150000      1338.1783156871
s   1 1.0 
    10528.8881890000       740.7931835960
s   1 1.0 
     4785.8582680000       410.0907438407
s   1 1.0 
     2175.3901220000       227.0193920667
s   1 1.0 
      988.8136920000       125.6741468865
s   1 1.0 
      449.4607690000        69.5711104117
s   1 1.0 
      204.3003500000        38.5134057612
s   1 1.0 
       92.8637950000        21.3203786259
s   1 1.0 
       42.2108160000        11.8026058245
s   1 1.0 
       19.1867350000         6.5337257345
s   1 1.0 
        8.7212430000         3.6169614730
s   1 1.0 
        3.9642010000         2.0022893726
s   1 1.0 
        1.8019100000         1.1084341915
s   1 1.0 
        0.8190500000         0.6136106705
s   1 1.0 
        0.3722950000         0.3396843160
s   1 1.0 
        0.1692250000         0.1880435685
s   1 1.0 
        0.0769210000         0.1040983350
s   1 1.0 
        0.0349640000         0.0576269887
s   1 1.0 
        0.0158930000         0.0319017498
p   8 1.0 
   879013.3813660000    139189.6694195126
   366255.5755690000     11873.5310695809
   152606.4898210000     40255.8773916045
    63586.0374250000     19887.9699123185
    26494.1822610000     19138.0697118639
    11039.2426090000     15284.2547358037
     4599.6844200000     14199.0747202623
     1916.5351750000     12759.1191870144
p   1 1.0 
      798.5563230000      6050.9286073116
p   1 1.0 
      332.7318010000      2025.6199998139
p   1 1.0 
      138.6382510000       678.1002843303
p   1 1.0 
       57.7659380000       227.0021001283
p   1 1.0 
       24.0691410000        75.9916416591
p   1 1.0 
       10.0288090000        25.4391026723
p   1 1.0 
        4.1786700000         8.5160397883
p   1 1.0 
        1.7411130000         2.8508461829
p   1 1.0 
        0.7254640000         0.9543549283
p   1 1.0 
        0.3022760000         0.3194807322
p   1 1.0 
        0.1259490000         0.1069506658
p   1 1.0 
        0.0524790000         0.0358032150
d   7 1.0 
    43223.8765000000     60764.0080375267
    17289.5506000000     29755.0800020834
     6915.8202400000     32871.2311092175
     2766.3280960000     30065.6700485816
     1106.5312380000     31905.5201083940
      442.6124950000     28787.6778141197
      177.0449980000     19499.0030796932
d   1 1.0 
       70.8179990000      4928.5761768021
d   1 1.0 
       28.3272000000       991.5770557751
d   1 1.0 
       11.3308800000       199.4947420861
d   1 1.0 
        4.5323520000        40.1362172392
d   1 1.0 
        1.8129410000         8.0749809665
d   1 1.0 
        0.7251760000         1.6245985936
d   1 1.0 
        0.2900710000         0.3268531162
d   1 1.0 
        0.1160280000         0.0657589689
d   1 1.0 
        0.0464110000         0.0132299043
f   6 1.0 
     4758.8680260000     68069.5976130275
     1830.3338560000     59148.9500505355
      703.9745600000     64844.9511990799
      270.7594460000     63667.3327460647
      104.1382490000     46445.9881466115
       40.0531730000     19036.1414891793
f   1 1.0 
       15.4050660000      2680.6684110836
f   1 1.0 
        5.9250260000       312.2864675901
f   1 1.0 
        2.2788560000        36.3800311270
f   1 1.0 
        0.8764830000         4.2381170555
f   1 1.0 
        0.3371090000         0.4937230016
f   1 1.0 
        0.1296570000         0.0575163091

  2 0
s   6 1.0 
    35479.1004410000         1.9229128581
     5318.4728983000         2.2734773358
     1210.4810975000         3.4747482552
      342.8551814000         5.2879612972
      112.0194318100         7.1666332516
       40.7147402500         7.7556346254
s   1 1.0 
       16.0396781100         5.7122450312
s   1 1.0 
        6.5038186700         2.9025947842
s   1 1.0 
        1.5440477500         0.9872011154
s   1 1.0 
        0.6122345300        -0.4932856223
s   1 1.0 
        0.2402798000         0.2445952611
p   4 1.0 
       80.2339004800         4.2755032106
       18.5940107400         4.7314752302
        5.6867902700         4.0864798013
        1.9511006300         2.2989954518
p   1 1.0 
        0.6697021100         0.8635593126
p   1 1.0 
        0.2165130000         0.2105208234
d   1 1.0 
        3.1070000000        20.7284714039
d   1 1.0 
        0.8550000000         2.1672588463
f   1 1.0 
        1.9170000000        24.6547062912

  3 0
s   6 1.0 
    35479.1004410000         1.9229128581
     5318.4728983000         2.2734773358
     1210.4810975000         3.4747482552
      342.8551814000         5.2879612972
      112.0194318100         7.1666332516
       40.7147402500         7.7556346254
s   1 1.0 
       16.0396781100         5.7122450312
s   1 1.0 
        6.5038186700         2.9025947842
s   1 1.0 
        1.5440477500         0.9872011154
s   1 1.0 
        0.6122345300        -0.4932856223
s   1 1.0 
        0.2402798000         0.2445952611
p   4 1.0 
       80.2339004800         4.2755032106
       18.5940107400         4.7314752302
        5.6867902700         4.0864798013
        1.9511006300         2.2989954518
p   1 1.0 
        0.6697021100         0.8635593126
p   1 1.0 
        0.2165130000         0.2105208234
d   1 1.0 
        3.1070000000        20.7284714039
d   1 1.0 
        0.8550000000         2.1672588463
f   1 1.0 
        1.9170000000        24.6547062912

  4 0
s   6 1.0 
    35479.1004410000         1.9229128581
     5318.4728983000         2.2734773358
     1210.4810975000         3.4747482552
      342.8551814000         5.2879612972
      112.0194318100         7.1666332516
       40.7147402500         7.7556346254
s   1 1.0 
       16.0396781100         5.7122450312
s   1 1.0 
        6.5038186700         2.9025947842
s   1 1.0 
        1.5440477500         0.9872011154
s   1 1.0 
        0.6122345300        -0.4932856223
s   1 1.0 
        0.2402798000         0.2445952611
p   4 1.0 
       80.2339004800         4.2755032106
       18.5940107400         4.7314752302
        5.6867902700         4.0864798013
        1.9511006300         2.2989954518
p   1 1.0 
        0.6697021100         0.8635593126
p   1 1.0 
        0.2165130000         0.2105208234
d   1 1.0 
        3.1070000000        20.7284714039
d   1 1.0 
        0.8550000000         2.1672588463
f   1 1.0 
        1.9170000000        24.6547062912

  5 0
s   6 1.0 
    35479.1004410000         1.9229128581
     5318.4728983000         2.2734773358
     1210.4810975000         3.4747482552
      342.8551814000         5.2879612972
      112.0194318100         7.1666332516
       40.7147402500         7.7556346254
s   1 1.0 
       16.0396781100         5.7122450312
s   1 1.0 
        6.5038186700         2.9025947842
s   1 1.0 
        1.5440477500         0.9872011154
s   1 1.0 
        0.6122345300        -0.4932856223
s   1 1.0 
        0.2402798000         0.2445952611
p   4 1.0 
       80.2339004800         4.2755032106
       18.5940107400         4.7314752302
        5.6867902700         4.0864798013
        1.9511006300         2.2989954518
p   1 1.0 
        0.6697021100         0.8635593126
p   1 1.0 
        0.2165130000         0.2105208234
d   1 1.0 
        3.1070000000        20.7284714039
d   1 1.0 
        0.8550000000         2.1672588463
f   1 1.0 
        1.9170000000        24.6547062912

[5D]
[9G]
[MO]
 Sym=     1a
 Ene= -4.48874114185943E+03
 Spin= Alpha
 Occup= 1.000000
  1      -0.089707892087
  2      -0.067509860175
  3      -0.114799968660
  4      -0.180028455182
  5      -0.264902011293
  6      -0.299423982290
  7      -0.188404696449
  8      -0.030966518159
  9      -0.000918009637
 10       0.000657160671
 11      -0.000477511182
 12       0.000350882963
 13      -0.000248873388
 14       0.000168140695
 15      -0.000112208463
 16       0.000074979271
 17      -0.000049322757
 18       0.000029947004
 19      -0.000014616227
 20       0.000006464122
 21      -0.000001749591
 22      -0.000000001850
 23       0.000000005146
 24      -0.000000004183
 25       0.000000000130
 26      -0.000000000396
 27       0.000000000339
 28       0.000000000076
 29       0.000000000032
 30      -0.000000000025
 31      -0.000000000062
 32      -0.000000000011
 33      -0.000000000039
 34       0.000000000128
 35      -0.000000000026
 36       0.000000000113
 37      -0.000000000260
 38       0.000000000212
 39      -0.000000000343
 40       0.000000000470
 41      -0.000000000437
 42       0.000000000651
 43      -0.000000000902
 44       0.000000001013
 45      -0.000000001333
 46       0.000000001734
 47      -0.000000002175
 48       0.000000002657
 49      -0.000000003219
 50       0.000000004311
 51      -0.000000005020
 52       0.000000005186
 53      -0.000000005870
 54       0.000000007841
 55      -0.000000009241
 56       0.000000003826
 57      -0.000000012237
 58       0.000000002761
 59      -0.000000004870
 60       0.000000005030
 61      -0.000000005048
 62       0.000000000122
 63      -0.000000001648
 64      -0.000000008195
 65       0.000000002093
 66       0.000000005482
 67       0.000000000125
 68       0.000000001576
 69       0.000000008991
 70      -0.000000002504
 71      -0.000000006596
 72      -0.000000000686
 73      -0.000000001734
 74      -0.000000011218
 75       0.000000003398
 76       0.000000006684
 77       0.000000000846
 78       0.000000001650
 79       0.000000011456
 80      -0.000000003557
 81      -0.000000008856
 82      -0.000000001328
 83      -0.000000002077
 84      -0.000000015313
 85       0.000000004863
 86       0.000000013231
 87       0.000000002264
 88       0.000000002999
 89       0.000000023051
 90      -0.000000007481
 91      -0.000000014330
 92      -0.000000003061
 93      -0.000000003013
 94      -0.000000025263
 95       0.000000008525
 96       0.000000002485
 97       0.000000002029
 98       0.000000000241
 99       0.000000005441
100      -0.000000001674
101       0.000000070795
102       0.000000020565
103       0.000000014793
104       0.000000127283
105      -0.000000044872
106      -0.000000030412
107      -0.000000005495
108      -0.000000007248
109      -0.000000053549
110       0.000000016235
111       0.000000000670
112      -0.000000001665
113      -0.000000002582
114       0.000000002891
115       0.000000010585
116       0.000000000063
117      -0.000000002506
118      -0.000000002138
119       0.000000005456
120       0.000000008395
121      -0.000000009398
122      -0.000000034105
123      -0.000000000207
124       0.000000008137
125       0.000000004057
126      -0.000000010376
127      -0.000000015964
128       0.000000017867
129       0.000000064849
130       0.000000000396
131      -0.000000015480
132      -0.000000007028
133       0.000000017935
134       0.000000027590
135      -0.000000030878
136      -0.000000112194
137      -0.000000000678
138       0.000000026791
139       0.000000010993
140      -0.000000027805
141      -0.000000042674
142       0.000000047791
143       0.000000174000
144       0.000000000987
145      -0.000000041648
146      -0.000000011286
147       0.000000028503
148       0.000000043340
149      -0.000000048791
150      -0.000000178480
151      -0.000000000798
152       0.000000043201
153      -0.000000018828
154       0.000000040760
155       0.000000061740
156      -0.000000070549
157      -0.000000260954
158      -0.000000000112
159       0.000000064327
160       0.000000015658
161      -0.000000068894
162       0.000000120050
163      -0.000000198081
164      -0.000000114577
165      -0.000000409478
166       0.000000033603
167       0.000000023170
168      -0.000000045170
169       0.000000021853
170       0.000000016059
171      -0.000000029847
172       0.000000153296
173       0.000000100284
174      -0.000000203428
175      -0.000000027242
176       0.000000061813
177       0.000000041516
178      -0.000000009530
179      -0.000000030816
180       0.000000061327
181      -0.000000140266
182      -0.000000094214
183       0.000000020708
184       0.000000069919
185      -0.000000012591
186      -0.000000076616
187      -0.000000052945
188       0.000000029021
189       0.000000080302
190      -0.000000008391
191       0.000000028762
192       0.000000015645
193      -0.000000068837
194       0.000000119947
195      -0.000000197851
196      -0.000000114784
197      -0.000000413905
198      -0.000000026340
199       0.000000037577
200       0.000000039573
201      -0.000000017813
202       0.000000026514
203       0.000000026381
204      -0.000000119445
205       0.000000165743
206       0.000000181784
207      -0.000000011196
208       0.000000043312
209      -0.000000059128
210       0.000000016385
211       0.000000039433
212       0.000000024925
213      -0.000000098257
214       0.000000133699
215      -0.000000037941
216      -0.000000089169
217       0.000000037302
218       0.000000038326
219      -0.000000054799
220       0.000000033279
221       0.000000089724
222       0.000000043417
223       0.000000009736
224       0.000000015790
225      -0.000000069493
226       0.000000121170
227      -0.000000201296
228      -0.000000122907
229      -0.000000429176
230      -0.000000046827
231      -0.000000026370
232      -0.000000028855
233      -0.000000030156
234      -0.000000017735
235      -0.000000018657
236      -0.000000217700
237      -0.000000116716
238      -0.000000134157
239       0.000000015532
240      -0.000000055206
241      -0.000000029321
242      -0.000000027835
243      -0.000000048899
244      -0.000000035844
245       0.000000125345
246       0.000000066338
247       0.000000062155
248       0.000000111114
249      -0.000000057950
250       0.000000006593
251       0.000000002697
252       0.000000047758
253       0.000000080631
254      -0.000000000680
255      -0.000000069733
256       0.000000015673
257      -0.000000068963
258       0.000000120177
259      -0.000000198733
260      -0.000000120153
261      -0.000000435431
262       0.000000038429
263      -0.000000032417
264       0.000000032509
265       0.000000027488
266      -0.000000024874
267       0.000000023387
268       0.000000181659
269      -0.000000144950
270       0.000000153025
271       0.000000006556
272      -0.000000052428
273       0.000000043474
274      -0.000000006931
275       0.000000050366
276      -0.000000015391
277       0.000000118415
278      -0.000000098277
279       0.000000014700
280      -0.000000113476
281       0.000000054210
282      -0.000000023910
283       0.000000019078
284      -0.000000014284
285       0.000000096096
286      -0.000000031736
287      -0.000000051048
 Sym=     1a
 Ene= -8.54442390257183E+02
 Spin= Alpha
 Occup= 1.000000
  1      -0.038294319517
  2      -0.031157088769
  3      -0.051668809224
  4      -0.088896020201
  5      -0.140007307316
  6      -0.175204806940
  7      -0.061930280716
  8       0.380730346633
  9       0.603125910711
 10       0.160423466081
 11      -0.001802786982
 12       0.001354941960
 13      -0.000660574912
 14       0.000301695485
 15      -0.000148527700
 16       0.000089376893
 17      -0.000056436030
 18       0.000033143876
 19      -0.000016008692
 20       0.000007054249
 21      -0.000001905010
 22      -0.000000000285
 23      -0.000000009581
 24       0.000000008557
 25       0.000000002618
 26      -0.000000023629
 27       0.000000020425
 28       0.000000005690
 29      -0.000000041260
 30       0.000000035212
 31       0.000000002786
 32      -0.000000039295
 33       0.000000035030
 34      -0.000000001520
 35      -0.000000004571
 36       0.000000005102
 37      -0.000000000140
 38       0.000000001234
 39      -0.000000001385
 40      -0.000000000177
 41       0.000000000512
 42       0.000000000000
 43      -0.000000000687
 44       0.000000000907
 45      -0.000000001302
 46       0.000000002210
 47      -0.000000003642
 48       0.000000003831
 49      -0.000000003734
 50       0.000000005706
 51      -0.000000006099
 52       0.000000005688
 53      -0.000000006979
 54       0.000000008783
 55      -0.000000010121
 56       0.000000005197
 57      -0.000000013994
 58       0.000000003042
 59      -0.000000005390
 60       0.000000005602
 61       0.000000435776
 62      -0.000000010721
 63       0.000000134231
 64       0.000000705668
 65      -0.000000183409
 66       0.000000026655
 67      -0.000000006405
 68       0.000000008547
 69       0.000000036733
 70      -0.000000008326
 71      -0.000000055981
 72      -0.000000005200
 73      -0.000000014738
 74      -0.000000093571
 75       0.000000029353
 76       0.000000018063
 77       0.000000001575
 78       0.000000004466
 79       0.000000029656
 80      -0.000000009593
 81      -0.000000003903
 82       0.000000000067
 83      -0.000000000845
 84      -0.000000005841
 85       0.000000001847
 86       0.000000012994
 87       0.000000001982
 88       0.000000003115
 89       0.000000022394
 90      -0.000000007161
 91      -0.000000012631
 92      -0.000000002528
 93      -0.000000002672
 94      -0.000000022047
 95       0.000000007309
 96      -0.000000002931
 97       0.000000001005
 98      -0.000000000928
 99      -0.000000004018
100       0.000000001751
101       0.000000079730
102       0.000000022178
103       0.000000016702
104       0.000000142825
105      -0.000000050178
106      -0.000000033550
107      -0.000000005933
108      -0.000000008002
109      -0.000000059013
110       0.000000017843
111       0.000000008188
112      -0.000000028098
113      -0.000000039951
114       0.000000044790
115       0.000000147255
116       0.000000001095
117      -0.000000038061
118      -0.000000015297
119       0.000000042862
120       0.000000064084
121      -0.000000071814
122      -0.000000251975
123      -0.000000001619
124       0.000000061709
125       0.000000015773
126      -0.000000042390
127      -0.000000064163
128       0.000000071883
129       0.000000256018
130       0.000000001606
131      -0.000000061937
132      -0.000000011279
133       0.000000030017
134       0.000000045621
135      -0.000000051093
136      -0.000000182959
137      -0.000000001144
138       0.000000044120
139       0.000000010959
140      -0.000000028406
141      -0.000000043331
142       0.000000048557
143       0.000000175415
144       0.000000001012
145      -0.000000042198
146      -0.000000009944
147       0.000000025705
148       0.000000038846
149      -0.000000043815
150      -0.000000159447
151      -0.000000000690
152       0.000000038755
153      -0.000000021687
154       0.000000047441
155       0.000000072041
156      -0.000000082060
157      -0.000000303436
158      -0.000000000318
159       0.000000074459
160       0.000000015977
161      -0.000000076716
162       0.000000135569
163      -0.000000237389
164      -0.000000156325
165      -0.000000450016
166       0.000000038975
167       0.000000026676
168      -0.000000052418
169       0.000000007288
170       0.000000006354
171      -0.000000010200
172       0.000000164917
173       0.000000107051
174      -0.000000219011
175      -0.000000030688
176       0.000000069425
177       0.000000046618
178      -0.000000010868
179      -0.000000034605
180       0.000000073655
181      -0.000000167490
182      -0.000000112701
183       0.000000025548
184       0.000000083640
185      -0.000000014160
186      -0.000000086677
187      -0.000000059929
188       0.000000032898
189       0.000000090731
190      -0.000000009398
191       0.000000032637
192       0.000000015969
193      -0.000000076681
194       0.000000135499
195      -0.000000237235
196      -0.000000156592
197      -0.000000454434
198      -0.000000030617
199       0.000000043455
200       0.000000045986
201      -0.000000006237
202       0.000000010369
203       0.000000009013
204      -0.000000128615
205       0.000000177436
206       0.000000195622
207      -0.000000012660
208       0.000000048653
209      -0.000000066496
210       0.000000018274
211       0.000000044343
212       0.000000030118
213      -0.000000117274
214       0.000000160276
215      -0.000000044769
216      -0.000000106878
217       0.000000042172
218       0.000000043373
219      -0.000000062084
220       0.000000037591
221       0.000000101449
222       0.000000049096
223       0.000000011159
224       0.000000016100
225      -0.000000077310
226       0.000000136698
227      -0.000000240729
228      -0.000000164978
229      -0.000000470182
230      -0.000000054333
231      -0.000000030362
232      -0.000000033509
233      -0.000000009657
234      -0.000000006685
235      -0.000000005970
236      -0.000000234076
237      -0.000000124373
238      -0.000000144426
239       0.000000017342
240      -0.000000062012
241      -0.000000032967
242      -0.000000031466
243      -0.000000054896
244      -0.000000042357
245       0.000000149683
246       0.000000079592
247       0.000000075183
248       0.000000132868
249      -0.000000065511
250       0.000000007511
251       0.000000003176
252       0.000000054050
253       0.000000091119
254      -0.000000000938
255      -0.000000078937
256       0.000000015999
257      -0.000000076840
258       0.000000135780
259      -0.000000238244
260      -0.000000162263
261      -0.000000476640
262       0.000000044738
263      -0.000000037489
264       0.000000037804
265       0.000000010273
266      -0.000000010859
267       0.000000008911
268       0.000000195330
269      -0.000000154607
270       0.000000164308
271       0.000000007267
272      -0.000000058969
273       0.000000048871
274      -0.000000007974
275       0.000000056683
276      -0.000000017909
277       0.000000141757
278      -0.000000117751
279       0.000000018346
280      -0.000000136305
281       0.000000061283
282      -0.000000027065
283       0.000000021686
284      -0.000000016276
285       0.000000108677
286      -0.000000035847
287      -0.000000057892
 Sym=     1a
 Ene= -7.12128615648116E+02
 Spin= Alpha
 Occup= 1.000000
  1      -0.000000002771
  2      -0.000000002263
  3      -0.000000003809
  4      -0.000000006415
  5      -0.000000010691
  6      -0.000000011862
  7      -0.000000005195
  8       0.000000040522
  9       0.000000045572
 10      -0.000000011845
 11      -0.000000021293
 12       0.000000038666
 13      -0.000000049175
 14       0.000000068067
 15      -0.000000086188
 16       0.000000061828
 17       0.000000009949
 18       0.000000019959
 19       0.000000021637
 20      -0.000000133537
 21       0.000000037206
 22       0.077417573909
 23      -0.024276327846
 24      -0.162649066664
 25       0.129958088688
 26      -0.040751795638
 27      -0.273033122002
 28       0.194128803389
 29      -0.060874219834
 30      -0.407851425765
 31       0.101121465680
 32      -0.031709310185
 33      -0.212449331162
 34       0.003219876621
 35      -0.001009677029
 36      -0.006764718230
 37       0.001864964050
 38      -0.000584806779
 39      -0.003918197660
 40      -0.001289711609
 41       0.000404420401
 42       0.002709656777
 43       0.000799625124
 44      -0.000250739181
 45      -0.001680061393
 46      -0.000492881133
 47       0.000154548189
 48       0.001035686172
 49       0.000311513546
 50      -0.000097672221
 51      -0.000654739988
 52      -0.000195890647
 53       0.000061425312
 54       0.000411743112
 55       0.000117874259
 56      -0.000036998718
 57      -0.000247373021
 58      -0.000023149228
 59       0.000007253075
 60       0.000048624036
 61       0.000000049573
 62      -0.000000074868
 63      -0.000000422713
 64       0.000000146333
 65       0.000000430830
 66      -0.000000172468
 67       0.000000222648
 68       0.000001116943
 69      -0.000000382757
 70      -0.000001109000
 71       0.000000237460
 72      -0.000000298784
 73      -0.000001557549
 74       0.000000530927
 75       0.000001548029
 76      -0.000000384621
 77       0.000000473554
 78       0.000002461256
 79      -0.000000834870
 80      -0.000002437164
 81       0.000000694683
 82      -0.000000847045
 83      -0.000004403963
 84       0.000001491142
 85       0.000004354606
 86      -0.000001403311
 87       0.000001704885
 88       0.000008877881
 89      -0.000003005701
 90      -0.000008778274
 91       0.000003060590
 92      -0.000003708595
 93      -0.000019322016
 94       0.000006543631
 95       0.000019110950
 96      -0.000005188371
 97       0.000006290996
 98       0.000032805445
 99      -0.000011104964
100      -0.000032430798
101       0.000008397652
102      -0.000010194783
103      -0.000053851502
104       0.000018145283
105       0.000052829568
106      -0.000001084288
107       0.000001268745
108       0.000006711981
109      -0.000002272638
110      -0.000006627352
111      -0.000000300579
112      -0.000000097862
113      -0.000000089185
114      -0.000000258635
115       0.000000081299
116      -0.000000200169
117       0.000000112316
118      -0.000000244083
119      -0.000000615089
120       0.000000055064
121       0.000000192236
122      -0.000000119448
123      -0.000000166861
124       0.000000029086
125       0.000000779246
126       0.000001450776
127      -0.000000051284
128      -0.000000238537
129       0.000000209127
130       0.000000528309
131      -0.000000148265
132      -0.000001761804
133      -0.000003133990
134       0.000000078496
135       0.000000437427
136      -0.000000426804
137      -0.000001192896
138       0.000000347941
139       0.000004575544
140       0.000007884711
141      -0.000000141266
142      -0.000000940355
143       0.000001016388
144       0.000003095968
145      -0.000000927156
146      -0.000010209516
147      -0.000017136735
148       0.000000217116
149       0.000001746647
150      -0.000002102442
151      -0.000006904552
152       0.000002121675
153       0.000015890650
154       0.000024803792
155      -0.000000080710
156      -0.000001125433
157       0.000002569428
158       0.000010864403
159      -0.000003680199
160       0.000001418259
161      -0.000006720972
162       0.000012784904
163      -0.000034434978
164      -0.000059185037
165      -0.000085989943
166       0.000003932916
167       0.000002797069
168      -0.000005389612
169      -0.000014756055
170      -0.000009878887
171       0.000020489088
172       0.000012153465
173       0.000006219806
174      -0.000018727347
175      -0.000001132398
176       0.000002753265
177       0.000002531437
178      -0.000000538753
179      -0.000001880509
180       0.000005372859
181      -0.000012479475
182      -0.000010378278
183       0.000002413109
184       0.000007714750
185      -0.000000677581
186      -0.000001462919
187      -0.000001252482
188       0.000000302993
189       0.000002047672
190      -0.000000483033
191       0.000000775437
192      -0.000001434198
193       0.000006795986
194      -0.000012925807
195       0.000034804484
196       0.000059882205
197       0.000087269751
198       0.000003114035
199      -0.000004560944
200      -0.000004758309
201      -0.000011822436
202       0.000016572685
203       0.000018211266
204       0.000010344565
205      -0.000012215095
206      -0.000017022264
207       0.000000248052
208      -0.000001707865
209       0.000003259110
210      -0.000000973927
211      -0.000002214730
212      -0.000001634758
213       0.000008111746
214      -0.000013874001
215       0.000003901543
216       0.000009358907
217      -0.000001193389
218      -0.000000611599
219       0.000000969514
220      -0.000001097281
221      -0.000001957061
222      -0.000001281123
223      -0.000000049841
224       0.000000251884
225      -0.000001194013
226       0.000002272563
227      -0.000006128206
228      -0.000010484561
229      -0.000015025731
230      -0.000000817818
231      -0.000000620953
232      -0.000000860270
233       0.000002674875
234       0.000002337140
235       0.000003857194
236       0.000000689857
237      -0.000002437389
238      -0.000007522700
239       0.000000460702
240      -0.000000272392
241      -0.000000197468
242      -0.000000447614
243      -0.000000521191
244      -0.000001422890
245       0.000001556979
246       0.000000987369
247       0.000001636553
248       0.000002169572
249      -0.000000352522
250      -0.000000699622
251      -0.000000342274
252       0.000000218767
253       0.000000077984
254      -0.000000229288
255      -0.000000541651
256      -0.000000233353
257       0.000001105785
258      -0.000002103237
259       0.000005658303
260       0.000009664657
261       0.000013939348
262      -0.000000587913
263       0.000000629366
264      -0.000000892350
265       0.000001825776
266      -0.000002148162
267       0.000003983111
268       0.000001412956
269       0.000000772795
270      -0.000007693495
271      -0.000000402197
272       0.000000245130
273      -0.000000275547
274       0.000000156033
275      -0.000000650640
276       0.000001128789
277      -0.000001384664
278       0.000001340559
279      -0.000000511475
280       0.000002478438
281      -0.000000471126
282      -0.000000581386
283       0.000000415631
284       0.000000105728
285      -0.000000285471
286       0.000000176387
287       0.000000506595
 Sym=     1a