[Molden Format]
[Title]
 Molden file created by orca_2mkl for BaseName=/data01/nikolayandreadi/sCC/HNO3

[Atoms] AU
O    1   8          2.2612632994         1.6247468457         0.1397830421 
N    2   7         -0.3609735964         1.2205155284         0.0737106576 
O    3   8         -1.5781594273         3.0116848855         0.7422258439 
O    4   8         -1.0242769180        -0.8500706246        -0.6393548223 
H    5   1          2.9130884245         0.0052817845        -0.4517069070 
[GTO]
  1 0
s   6 1.0 
    27032.3826310000         1.4645050749
     4052.3871392000         1.8244031008
      922.3272271000         2.8547160967
      261.2407098900         4.3654874290
       85.3546413500         5.8940772662
       31.0350352400         6.2963020147
s   1 1.0 
       12.2608607300         4.6698272139
s   1 1.0 
        4.9987076000         2.3826123703
s   1 1.0 
        1.1703108200         0.8019291632
s   1 1.0 
        0.4647474100        -0.4011648063
s   1 1.0 
        0.1850453600         0.2010799377
p   4 1.0 
       63.2749548000         3.0898340730
       14.6270493800         3.3923831935
        4.4501223500         2.9482801524
        1.5275799600         1.7113350234
p   1 1.0 
        0.5293511800         0.6436057935
p   1 1.0 
        0.1747842100         0.1610897223
d   1 1.0 
        2.3140000000        12.3767310624
d   1 1.0 
        0.6450000000         1.3234257612
f   1 1.0 
        1.4280000000        12.7097950062

  2 0
s   6 1.0 
    19730.8006470000         1.0813791907
     2957.8958745000         1.4296791707
      673.2213359500         2.2863987979
      190.6824949400         3.5072217175
       62.2954419000         4.7060688532
       22.6541611800         4.9392449708
s   1 1.0 
        8.9791477400         3.6968891641
s   1 1.0 
        3.6863002400         1.8960645594
s   1 1.0 
        0.8466007700         0.6290267093
s   1 1.0 
        0.3364713400        -0.3148626531
s   1 1.0 
        0.1364765400         0.1600308069
p   4 1.0 
       49.2003805100         2.1434239845
       11.3467905400         2.3318876812
        3.4273972400         2.0487379397
        1.1785525100         1.2605537349
p   1 1.0 
        0.4164220500         0.4768230432
p   1 1.0 
        0.1426082600         0.1249168255
d   1 1.0 
        1.6540000000         6.8771297418
d   1 1.0 
        0.4690000000         0.7577440909
f   1 1.0 
        1.0930000000         6.9645882147

  3 0
s   6 1.0 
    27032.3826310000         1.4645050749
     4052.3871392000         1.8244031008
      922.3272271000         2.8547160967
      261.2407098900         4.3654874290
       85.3546413500         5.8940772662
       31.0350352400         6.2963020147
s   1 1.0 
       12.2608607300         4.6698272139
s   1 1.0 
        4.9987076000         2.3826123703
s   1 1.0 
        1.1703108200         0.8019291632
s   1 1.0 
        0.4647474100        -0.4011648063
s   1 1.0 
        0.1850453600         0.2010799377
p   4 1.0 
       63.2749548000         3.0898340730
       14.6270493800         3.3923831935
        4.4501223500         2.9482801524
        1.5275799600         1.7113350234
p   1 1.0 
        0.5293511800         0.6436057935
p   1 1.0 
        0.1747842100         0.1610897223
d   1 1.0 
        2.3140000000        12.3767310624
d   1 1.0 
        0.6450000000         1.3234257612
f   1 1.0 
        1.4280000000        12.7097950062

  4 0
s   6 1.0 
    27032.3826310000         1.4645050749
     4052.3871392000         1.8244031008
      922.3272271000         2.8547160967
      261.2407098900         4.3654874290
       85.3546413500         5.8940772662
       31.0350352400         6.2963020147
s   1 1.0 
       12.2608607300         4.6698272139
s   1 1.0 
        4.9987076000         2.3826123703
s   1 1.0 
        1.1703108200         0.8019291632
s   1 1.0 
        0.4647474100        -0.4011648063
s   1 1.0 
        0.1850453600         0.2010799377
p   4 1.0 
       63.2749548000         3.0898340730
       14.6270493800         3.3923831935
        4.4501223500         2.9482801524
        1.5275799600         1.7113350234
p   1 1.0 
        0.5293511800         0.6436057935
p   1 1.0 
        0.1747842100         0.1610897223
d   1 1.0 
        2.3140000000        12.3767310624
d   1 1.0 
        0.6450000000         1.3234257612
f   1 1.0 
        1.4280000000        12.7097950062

  5 0
s   3 1.0 
       34.0613410000         0.2556300129
        5.1235746000         0.4613599287
        1.1646626000         0.6811215012
s   1 1.0 
        0.3272304100         0.3083545312
s   1 1.0 
        0.1030724100         0.1296483265
p   1 1.0 
        0.8000000000         1.0784563492

[5D]
[9G]
[MO]
 Sym=     1a
 Ene= -2.07063416032164E+01
 Spin= Alpha
 Occup= 2.000000
  1       0.436238157540
  2       0.411954858288
  3       0.250867713950
  4       0.024677380062
  5       0.013083718457
  6       0.006111068374
  7      -0.001372379146
  8      -0.001592854214
  9      -0.000522702699
 10       0.002640827878
 11       0.001877751979
 12       0.000586274321
 13      -0.001007762048
 14      -0.000823812737
 15      -0.000261598928
 16      -0.000028699922
 17       0.000016486063
 18       0.000021147643
 19      -0.000007301334
 20       0.000050652886
 21       0.000759009101
 22      -0.000017911261
 23      -0.000227645096
 24      -0.000731689540
 25      -0.000226899184
 26      -0.000041746741
 27      -0.000130674692
 28      -0.000045489213
 29      -0.000016153033
 30       0.000003484211
 31      -0.000148388123
 32      -0.000068694900
 33       0.000007064176
 34      -0.000024170498
 35       0.000056631570
 36      -0.001262931753
 37      -0.003918971200
 38      -0.001055099097
 39      -0.000165573062
 40      -0.000017769761
 41      -0.000001418287
 42       0.002506014323
 43       0.000370687315
 44       0.000057514425
 45      -0.002193879648
 46      -0.000098756794
 47       0.000029258769
 48      -0.000063893228
 49       0.000014607298
 50       0.000015614519
 51       0.000066921769
 52       0.000056457131
 53      -0.000773978548
 54      -0.000054810438
 55       0.000073225551
 56       0.001156454878
 57       0.000054078554
 58      -0.000004210078
 59      -0.000206941165
 60      -0.000022027113
 61       0.000000727470
 62       0.000027888529
 63      -0.000202482919
 64      -0.000070303585
 65      -0.000173015623
 66      -0.000156877136
 67      -0.000112721026
 68       0.000084561248
 69       0.000040142634
 70      -0.001148687179
 71       0.000029259662
 72      -0.000024904354
 73      -0.000009662803
 74      -0.000188543735
 75       0.000210291797
 76       0.000079849311
 77       0.000126391259
 78       0.000480900477
 79       0.000166177436
 80      -0.000021002708
 81       0.000003149745
 82       0.000013668361
 83       0.000001374407
 84       0.000012442153
 85       0.000131235060
 86       0.000010307361
 87      -0.000096812006
 88       0.000011516067
 89       0.000008382626
 90      -0.000015912424
 91       0.000018113874
 92      -0.000012631558
 93      -0.000001365791
 94       0.000001273532
 95       0.000029636872
 96      -0.000015318014
 97      -0.000181341829
 98      -0.000150022879
 99      -0.000146987081
100       0.000139998586
101      -0.000142509930
102      -0.000945300042
103       0.000061466980
104       0.000036778302
105       0.000011203623
106      -0.000251991400
107      -0.000082782280
108      -0.000021876272
109       0.000246518156
110      -0.000504447786
111      -0.000185672710
112      -0.000042092833
113       0.000002441463
114       0.000018533652
115       0.000025713122
116       0.000015616704
117       0.000194390203
118      -0.000024027841
119      -0.000090305844
120      -0.000103759733
121      -0.000107036399
122       0.000029739750
123       0.000027106318
124       0.000029934168
125      -0.000003181979
126      -0.000008367029
127       0.000008017349
128       0.000060042780
129       0.000510220818
130       0.000573539499
131      -0.000821238426
132      -0.000285068161
133       0.000380492104
134       0.000142838373
 Sym=     1a
 Ene= -2.06598600792521E+01
 Spin= Alpha
 Occup= 2.000000
  1      -0.000172344453
  2      -0.000176717895
  3      -0.000076583856
  4       0.000057492972
  5       0.000707545816
  6       0.000817882946
  7       0.000011270570
  8      -0.000017317131
  9      -0.000006431834
 10       0.000295319808
 11       0.000165849573
 12       0.000049887025
 13      -0.000298255234
 14      -0.000409559711
 15      -0.000135935776
 16       0.000038012696
 17       0.000010202732
 18      -0.000026819251
 19      -0.000001541274
 20       0.000022491477
 21      -0.000063613730
 22      -0.000046901347
 23       0.000093611239
 24      -0.000109645761
 25      -0.000129921658
 26      -0.000003344561
 27       0.000020335573
 28      -0.000004260648
 29       0.000020450677
 30      -0.000031952036
 31      -0.000033652219
 32      -0.000048570922
 33      -0.000012738699
 34      -0.000034763112
 35       0.000127701324
 36       0.001149808240
 37       0.008158258107
 38       0.003174692208
 39       0.000043409717
 40      -0.000076857855
 41      -0.000028415180
 42       0.004045022142
 43      -0.006041728008
 44      -0.002253329921
 45      -0.002182145356
 46       0.003465701234
 47       0.001288666635
 48       0.000109702296
 49       0.000069046401
 50      -0.000099206000
 51       0.000038795266
 52       0.000179895066
 53       0.001048175063
 54       0.001007866982
 55      -0.001343906746
 56       0.001254931418
 57       0.002763581359
 58       0.000158928776
 59      -0.000104718946
 60       0.000117766646
 61       0.000065917831
 62       0.000132634569
 63       0.000103383343
 64       0.000078765743
 65      -0.436198395293
 66      -0.412049129590
 67      -0.250577857006
 68      -0.026304505311
 69      -0.019669496188
 70      -0.008557478738
 71      -0.001479176901
 72       0.002162018114
 73       0.000807111036
 74       0.004229980582
 75      -0.006138799871
 76      -0.002292747467
 77      -0.001144753371
 78       0.001632338666
 79       0.000610148294
 80       0.000158618516
 81       0.000058529521
 82      -0.000131543865
 83       0.000037462438
 84       0.000142039525
 85      -0.000878110213
 86      -0.000734594565
 87       0.000996136795
 88      -0.000760623328
 89      -0.001985032138
 90       0.000126577721
 91      -0.000063186939
 92       0.000091470610
 93       0.000063786115
 94       0.000163350322
 95       0.000226102859
 96       0.000051164379
 97       0.004024261171
 98       0.003792518937
 99       0.002325971576
100       0.000285774013
101       0.000844425545
102       0.002007228683
103      -0.000025187879
104      -0.000010365959
105      -0.000002929297
106       0.000265900245
107      -0.000251714296
108      -0.000096735931
109       0.000703591431
110       0.000327799650
111       0.000095671099
112       0.000043485659
113       0.000000201026
114      -0.000020472082
115      -0.000024016726
116      -0.000008078881
117      -0.000161706608
118       0.000030712023
119       0.000001641272
120       0.000264399084
121       0.000131113180
122      -0.000038331790
123      -0.000021981768
124      -0.000035138263
125      -0.000005251966
126      -0.000006413200
127      -0.000030737828
128      -0.000054451612
129      -0.000096149697
130       0.000234809086
131       0.000028519217
132      -0.000170579656
133       0.000007057692
134       0.000007499886
 Sym=     1a
 Ene= -2.06571421101672E+01
 Spin= Alpha
 Occup= 2.000000
  1      -0.000181172838
  2      -0.000192070988
  3      -0.000065909877
  4      -0.000025800960
  5       0.000505583934
  6       0.000953132180
  7       0.000008207342
  8       0.000030701864
  9       0.000010631738
 10       0.000317169603
 11      -0.000059654591
 12      -0.000030456494
 13      -0.000536525037
 14       0.000465030943
 15       0.000180271743
 16       0.000040497803
 17       0.000008279412
 18      -0.000030127658
 19       0.000002670700
 20       0.000016913363
 21      -0.000094984536
 22      -0.000052265724
 23       0.000134938657
 24      -0.000155683260
 25      -0.000143037793
 26       0.000013859236
 27       0.000020668008
 28       0.000011884414
 29       0.000018810476
 30      -0.000040698779
 31      -0.000055931480
 32      -0.000019564386
 33      -0.000011771741
 34      -0.000029819019
 35       0.000115513426
 36       0.001213965870
 37       0.007905828077
 38       0.002986732572
 39       0.000016817900
 40       0.000065346827
 41       0.000022636432
 42       0.002079641989
 43       0.006423283698
 44       0.002211287909
 45      -0.001206135667
 46      -0.003868183063
 47      -0.001332884121
 48       0.000104825298
 49      -0.000035881259
 50      -0.000119639210
 51       0.000124392644
 52      -0.000109504402
 53       0.000979158334
 54      -0.000581968467
 55      -0.001628136294
 56       0.002482237898
 57      -0.001626814138
 58      -0.000162324746
 59      -0.000059736778
 60      -0.000128045244
 61      -0.000134620263
 62       0.000087746142
 63       0.000120355939
 64       0.000045578618
 65      -0.004025442035
 66      -0.003810822499
 67      -0.002299509525
 68      -0.000193153130
 69       0.000538215666
 70       0.001901300389
 71      -0.000056931486
 72       0.000043673382
 73       0.000017096840
 74       0.000263379582
 75       0.000223651679
 76       0.000071423844
 77       0.000774767634
 78      -0.000083997801
 79      -0.000052004314
 80       0.000047420051
 81       0.000003449609
 82      -0.000021950854
 83      -0.000027951824
 84       0.000000174821
 85      -0.000182354678
 86      -0.000023627106
 87       0.000008162382
 88       0.000297794992
 89      -0.000016562905
 90       0.000038596109
 91      -0.000035237327
 92       0.000029206026
 93       0.000014391323
 94      -0.000002001806
 95      -0.000056363889
 96       0.000015461734
 97      -0.436198650594
 98      -0.412035213572
 99      -0.250602718158
100      -0.026190662403
101      -0.019122695254
102      -0.008474168109
103      -0.000847804966
104      -0.002405615042
105      -0.000826304976
106       0.002239090575
107       0.006734736157
108       0.002317055949
109      -0.000648192440
110      -0.001864306267
111      -0.000640663784
112       0.000137964099
113      -0.000027228646
114      -0.000133349742
115       0.000099357530
116      -0.000092328824
117      -0.000814951977
118       0.000417949949
119       0.001192758243
120      -0.001649192635
121       0.001195768766
122      -0.000129077359
123      -0.000030178525
124      -0.000093964629
125      -0.000146202129
126       0.000106437168
127       0.000183271161
128       0.000134044447
129      -0.000111492724
130       0.000043478351
131       0.000123335953
132      -0.000026819692
133      -0.000067632541
134      -0.000023108351
 Sym=     1a
 Ene= -1.59474625831262E+01
 Spin= Alpha
 Occup= 2.000000
  1      -0.000036920148
  2      -0.000063914468
  3       0.000003889719
  4      -0.000152820748
  5      -0.001100025448
  6      -0.000427299225
  7      -0.000171626220
  8      -0.000023402331
  9      -0.000003250189
 10      -0.000692335979
 11      -0.000157129364
 12      -0.000035236706
 13       0.000215960024
 14      -0.000254742457
 15      -0.000096396903
 16      -0.000021856853
 17       0.000000976029
 18      -0.000004939995
 19       0.000049253943
 20       0.000009835915
 21      -0.000034226008
 22       0.000011696661
 23       0.000014054328
 24       0.000020761285
 25       0.000040114430
 26       0.000002443950
 27      -0.000117797344
 28      -0.000010825068
 29       0.000013248112
 30       0.000022142618
 31      -0.000101384236
 32      -0.000060579942
 33       0.449398816940
 34       0.409297835337
 35       0.240882223257
 36       0.020008562670
 37       0.003207698833
 38       0.002620995921
 39       0.000438272327
 40       0.000039030257
 41       0.000000857592
 42      -0.002747161792
 43      -0.000106110009
 44       0.000042137251
 45       0.000668644952
 46       0.000137758557
 47       0.000029172344
 48      -0.000366541084
 49      -0.000047318803
 50       0.000345431814
 51      -0.000211251586
 52      -0.000088825464
 53      -0.000597812375
 54      -0.000172578374
 55       0.001014628068
 56      -0.001429840644
 57      -0.000491419642
 58      -0.000003781983
 59       0.000118265937
 60      -0.000003893100
 61       0.000116303605
 62      -0.000388067539
 63      -0.000607337925
 64      -0.000277729560
 65      -0.000107753860
 66      -0.000128226117
 67      -0.000084077298
 68       0.000881244361
 69       0.002697279252
 70      -0.000330516839
 71       0.000169006870
 72      -0.000263956450
 73      -0.000098224191
 74      -0.001173772499
 75       0.001615642090
 76       0.000605174403
 77      -0.000037709684
 78      -0.000160292380
 79      -0.000055546773
 80       0.000023564633
 81       0.000006388254
 82      -0.000021403859
 83       0.000010778499
 84       0.000014934750
 85       0.000346991753
 86       0.000268874776
 87      -0.000377004898
 88       0.000265101195
 89       0.000721562532
 90      -0.000079737764
 91       0.000026356738
 92      -0.000056185434
 93      -0.000052384431
 94      -0.000108378576
 95      -0.000172809037
 96      -0.000009847928
 97      -0.000100240256
 98      -0.000120320130
 99      -0.000079413015
100       0.000831447558
101       0.002372287479
102      -0.000248068911
103       0.000090483914
104       0.000291721361
105       0.000100542866
106      -0.000622633937
107      -0.001644382621
108      -0.000563544625
109      -0.000052878667
110       0.000123262184
111       0.000045175540
112       0.000019317607
113      -0.000001104202
114      -0.000019463062
115       0.000015132635
116      -0.000005224493
117       0.000316169532
118      -0.000147844789
119      -0.000431580398
120       0.000559527295
121      -0.000429093924
122       0.000085528627
123       0.000009614185
124       0.000058333065
125       0.000112091866
126      -0.000066006014
127      -0.000122305911
128      -0.000125594290
129      -0.000050134800
130      -0.000257990228
131      -0.000289052035
132       0.000082866431
133      -0.000028113927
134      -0.000012372370
 Sym=     1a
 Ene= -1.68776815117594E+00
 Spin= Alpha
 Occup= 2.000000
  1      -0.032749707073
  2      -0.049314867111
  3      -0.032132435172
  4       0.108100034127
  5      -0.160635603629
  6       0.028230640413
  7      -0.037620878617
  8      -0.016009345921
  9      -0.004558816476
 10      -0.039031525656
 11      -0.017410081062
 12      -0.005011753013
 13       0.000676478715
 14      -0.000690005849
 15      -0.000264542497
 16      -0.001930791658
 17       0.000027406726
 18       0.000549442854
 19       0.001939230278
 20       0.000531019070
 21      -0.005879250137
 22       0.000554410460
 23       0.001501913416
 24       0.006202706221
 25       0.002968531085
 26       0.000566586320
 27       0.001554197497
 28       0.000553587738
 29       0.000430787486
 30       0.000099107212
 31       0.002076237677
 32       0.000407321507
 33      -0.076104967290
 34      -0.109603116914
 35      -0.075712529351
 36       0.297500442481
 37      -0.222880259787
 38       0.016560633566
 39      -0.029401503832
 40      -0.001866981661
 41       0.000175270078
 42      -0.000797813084
 43       0.000944463885
 44       0.000348013871
 45       0.007727431098
 46      -0.001768869298
 47      -0.000848660950
 48      -0.008979720062
 49      -0.001115637678
 50       0.008537434684
 51      -0.005371045702
 52      -0.002066377976
 53      -0.003193275945
 54      -0.000769816730
 55       0.002087467468
 56       0.000519852493
 57      -0.001613465754
 58      -0.000094407651
 59      -0.000705832586
 60      -0.000242436256
 61       0.001015427825
 62      -0.003102305361
 63      -0.006892996832
 64      -0.003034819840
 65      -0.045276971924
 66      -0.068030863808
 67      -0.044580734067
 68       0.150345521852
 69      -0.210816738533
 70       0.054335629278
 71       0.039731974665
 72      -0.059791615774
 73      -0.022293583534
 74       0.039237455549
 75      -0.057836515973
 76      -0.021587283904
 77       0.002597509073
 78      -0.006031883613
 79      -0.002208145364
 80      -0.002559751041
 81      -0.001826264322
 82       0.002771871097
 83      -0.001973395281
 84      -0.004878821965
 85      -0.006906593389
 86      -0.005303191050
 87       0.007603671233
 88      -0.005534013933
 89      -0.014239988830
 90       0.001504418967
 91      -0.000773469152
 92       0.001099120673
 93       0.000679805514
 94       0.001977340038
 95       0.002715054866
 96       0.000781253633
 97      -0.044121719152
 98      -0.066337435024
 99      -0.043313745695
100       0.145326144333
101      -0.208479974667
102       0.051700451192
103       0.021111416963
104       0.065216507311
105       0.022449026231
106       0.021860972073
107       0.065537280513
108       0.022541596135
109       0.001822020008
110       0.005943258535
111       0.002048251092
112      -0.002304258643
113       0.000980247842
114       0.003145937890
115      -0.004054764193
116       0.002855641542
117      -0.006972431475
118       0.003055652795
119       0.009346951302
120      -0.011868086527
121       0.008921378775
122      -0.001591752448
123      -0.000446128499
124      -0.001178667140
125      -0.001737510291
126       0.001344632005
127       0.002244875464
128       0.001487612453
129       0.022749222534
130       0.014711211270
131      -0.001735246687
132      -0.002470023664
133       0.003847467747
134       0.001432202595
 Sym=     1a
 Ene= -1.46654510498354E+00
 Spin= Alpha
 Occup= 2.000000
  1       0.022050796374
  2       0.033276421578
  3       0.021963262951
  4      -0.076533248180
  5       0.105090980973
  6      -0.036510804057
  7       0.002058458068
  8       0.027129684878
  9       0.009530277376
 10       0.003072218866
 11       0.026631133869
 12       0.009324289177
 13       0.002500574384
 14       0.004878180621
 15       0.001651269153
 16       0.000692568562
 17      -0.000191171387
 18      -0.000690209785
 19       0.000565399409
 20      -0.000612961519
 21       0.002319483420
 22      -0.001158780102
 23      -0.002198117699
 24       0.001750566246
 25      -0.003526791359
 26      -0.000843616205
 27      -0.000337076193
 28      -0.000763874066
 29      -0.000107036552
 30      -0.000138951585
 31      -0.000482378321
 32      -0.001173314337
 33      -0.002566718810
 34      -0.003815231864
 35      -0.002422900202
 36       0.011880604505
 37       0.000768782276
 38       0.001394761353
 39      -0.066799406585
 40       0.204472001662
 41       0.074243569783
 42      -0.042665582183
 43       0.110967948560
 44       0.040480255049
 45       0.003851132123
 46      -0.013641102059
 47      -0.004935820620
 48      -0.000068445284
 49      -0.004778072391
 50       0.000212778546
 51       0.000824808634
 52      -0.013422228178
 53       0.001899110003
 54      -0.003142741538
 55      -0.000074426458
 56      -0.002247137146
 57      -0.009342323958
 58      -0.002742629244
 59       0.001115753891
 60      -0.001864760427
 61      -0.002477325094
 62      -0.001181523918
 63      -0.000695735744
 64       0.001562256329
 65      -0.069341952306
 66      -0.104527315184
 67      -0.069180090019
 68       0.239964110497
 69      -0.323795895937
 70       0.127144821445
 71       0.047109904809
 72      -0.057591047824
 73      -0.021726154085
 74       0.046567289487
 75      -0.058823759009
 76      -0.022146884417
 77       0.010639150357
 78      -0.011122023329
 79      -0.004239307289
 80      -0.002803983111
 81      -0.002075794060
 82       0.002837426135
 83      -0.001653638154
 84      -0.005521949158
 85      -0.008271592731
 86      -0.006341066207
 87       0.008581591669
 88      -0.005340724703
 89      -0.016935167343
 90       0.001879157405
 91      -0.000841364256
 92       0.001374582480
 93       0.000842269969
 94       0.002784019333
 95       0.004178957104
 96       0.001069808359
 97       0.055661320574
 98       0.083892300330
 99       0.055529165775
100      -0.192283870195
101       0.259744019085
102      -0.107541596846
103      -0.033237849072
104      -0.049700845889
105      -0.016611751446
106      -0.032448187272
107      -0.051494785538
108      -0.017268642655
109      -0.009872868829
110      -0.010713172085
111      -0.003502777099
112       0.002151178687
113      -0.001190050784
114      -0.002518017758
115       0.002825457501
116      -0.003509155657
117       0.006515140231
118      -0.003742577367
119      -0.007689852472
120       0.008751290183
121      -0.011004792568
122       0.001510277024
123       0.000436374245
124       0.001139738062
125       0.001629079258
126      -0.001795039597
127      -0.003161678386
128      -0.001428841044
129      -0.025200859359
130      -0.020206557534
131      -0.001074035997
132       0.002738350159
133      -0.003952771157
134      -0.001477298715
 Sym=     1a
 Ene= -1.44403009660929E+00
 Spin= Alpha
 Occup= 2.000000
  1      -0.084444401585
  2      -0.127556019741
  3      -0.084159299557
  4       0.295245433110
  5      -0.406196942134
  6       0.139097194841
  7      -0.019920521465
  8      -0.038733457396
  9      -0.013106058655
 10      -0.022353746612
 11      -0.041101295006
 12      -0.013871919288
 13      -0.005663494852
 14      -0.001345706976
 15      -0.000307954015
 16      -0.002454942549
 17      -0.000469946723
 18       0.001650324095
 19       0.000254938004
 20      -0.000906433877
 21      -0.006971742198
 22      -0.000938115805
 23       0.004209303889
 24       0.001795096841
 25      -0.001378379122
 26       0.001380177697
 27       0.001805456575
 28       0.001136488837
 29       0.001166141765
 30       0.001036587572
 31       0.004193921333
 32       0.000202536107
 33       0.008193201852
 34       0.012254259681
 35       0.007512488889
 36      -0.032426646808
 37       0.017451978191
 38       0.012578447001
 39       0.128027803776
 40       0.073770158795
 41       0.022351739158
 42       0.101172238219
 43       0.044716567702
 44       0.012859860062
 45      -0.008167276688
 46      -0.008869081566
 47      -0.002899269569
 48      -0.000610916159
 49      -0.000585583172
 50      -0.004180438368
 51       0.011476124141
 52      -0.000734718720
 53      -0.002613943173
 54       0.000665792378
 55      -0.008704511876
 56       0.025705293364
 57       0.004130773824
 58      -0.000852460178
 59      -0.003143244432
 60      -0.000836950820
 61      -0.001309661722
 62       0.001937224797
 63      -0.000073381755
 64       0.000876480281
 65       0.010434031014
 66       0.015648490808
 67       0.010655398981
 68      -0.038787212658
 69       0.035445749166
 70      -0.021966076054
 71       0.010840163231
 72       0.019865093847
 73       0.006705831263
 74       0.013758980255
 75       0.013158330928
 76       0.004250935553
 77       0.002060826646
 78       0.005974528230
 79       0.002052228286
 80       0.000149862549
 81       0.000028202803
 82      -0.000859055723
 83       0.001851093335
 84       0.000186183327
 85       0.000392624781
 86      -0.000686819556
 87      -0.002245858356
 88       0.005035195734
 89      -0.001649679449
 90      -0.000308260585
 91      -0.000091531543
 92      -0.000121821120
 93      -0.000816920215
 94      -0.000190005632
 95      -0.000574998471
 96       0.001305604583
 97       0.045166981252
 98       0.068009208713
 99       0.045359765130
100      -0.159306360888
101       0.197889687405
102      -0.094582934617
103       0.000298404438
104      -0.046787649824
105      -0.016558497517
106       0.001125959702
107      -0.040761686399
108      -0.014450251739
109      -0.001374332920
110      -0.012690732107
111      -0.004449593431
112       0.001407610451
113      -0.000397402842
114      -0.002375450176
115       0.003539399282
116      -0.001100664576
117       0.004108489836
118      -0.000557285643
119      -0.006611609324
120       0.009384382487
121      -0.001580866834
122       0.001232025767
123       0.000079051677
124       0.000769444787
125       0.001900598900
126      -0.000622196984
127      -0.001117848209
128      -0.002426435780
129       0.071811633088
130       0.055193171396
131       0.000453399004
132      -0.005825557910
133       0.013201759448
134       0.004836980152
 Sym=     1a
 Ene= -9.55297980739775E-01
 Spin= Alpha
 Occup= 2.000000
  1      -0.026901001266
  2      -0.041227978827
  3      -0.027023234733
  4       0.103988151948
  5      -0.134168270953
  6       0.094768283998
  7       0.200326509061
  8      -0.056598678689
  9      -0.025875725438
 10       0.182096504649
 11      -0.053088433191
 12      -0.024101362826
 13       0.046842100012
 14      -0.012180342470
 15      -0.005678168471
 16       0.002071818182
 17      -0.001327856616
 18       0.002106095678
 19      -0.008375452284
 20      -0.004684559131
 21       0.005719686613
 22      -0.004400874802
 23       0.006061656296
 24      -0.023537827266
 25      -0.015038514887
 26       0.001276689808
 27      -0.003838788507
 28       0.000582020795
 29       0.001010462540
 30       0.001750074764
 31      -0.001459807994
 32      -0.001312380452
 33       0.055665011018
 34       0.082492117798
 35       0.055154733571
 36      -0.222183936133
 37       0.295713028864
 38      -0.075245223145
 39      -0.125262138053
 40      -0.021330111341
 41      -0.003896886079
 42      -0.108567044913
 43      -0.019411905543
 44      -0.003705906220
 45      -0.023274596224
 46       0.004599202567
 47       0.002301383401
 48       0.002696017930
 49      -0.000583495111