[Molden Format]
[Title]
 Molden file created by orca_2mkl for BaseName=Th_CC

[Atoms] AU
Th   1  90          0.0415890928         1.5388172189        -3.6027401976 
[GTO]
  1 0
s   9 1.0 
 56363088.8897159994     14778.1042965716
 25619585.8589619994     -5353.8940985092
 11645266.2995280009      8426.6246843710
  5293302.8634219998       355.2974589112
  2406046.7561010001      3966.2398531229
  1093657.6164090000      1871.6925969518
   497117.0983680000      2554.3549383654
   225962.3174400000      1947.5823690279
   102710.1442910000      2003.9339351483
s   1 1.0 
    46686.4292230000      2263.6177257250
s   1 1.0 
    21221.1041920000      1253.1009969054
s   1 1.0 
     9645.9564510000       693.6957997042
s   1 1.0 
     4384.5256600000       384.0184181081
s   1 1.0 
     1992.9662090000       212.5861876238
s   1 1.0 
      905.8937310000       117.6841657205
s   1 1.0 
      411.7698780000        65.1479902207
s   1 1.0 
      187.1681260000        36.0648401212
s   1 1.0 
       85.0764210000        19.9648936444
s   1 1.0 
       38.6711000000        11.0522318430
s   1 1.0 
       17.5777730000         6.1183311760
s   1 1.0 
        7.9898970000         3.3870060920
s   1 1.0 
        3.6317710000         1.8749899082
s   1 1.0 
        1.6508050000         1.0379631227
s   1 1.0 
        0.7503660000         0.5745991150
s   1 1.0 
        0.3410750000         0.3180881630
s   1 1.0 
        0.1550340000         0.1760882213
s   1 1.0 
        0.0704700000         0.0974795007
s   1 1.0 
        0.0320320000         0.0539632545
s   1 1.0 
        0.0145600000         0.0298731571
p   8 1.0 
   801557.4232150000    111526.6618928220
   333982.2596730000      9806.7644992234
   139159.2748640000     32786.6140208934
    57983.0311930000     16563.0181260814
    24159.5963310000     16114.3065299024
    10066.4984710000     13167.2436378249
     4194.3743630000     12484.9755041257
     1747.6559850000     11474.1273212331
p   1 1.0 
      728.1899940000      5391.9514325668
p   1 1.0 
      303.4124970000      1805.0195856541
p   1 1.0 
      126.4218740000       604.2516814379
p   1 1.0 
       52.6757810000       202.2804062426
p   1 1.0 
       21.9482420000        67.7157609165
p   1 1.0 
        9.1451010000        22.6686533209
p   1 1.0 
        3.8104590000         7.5886007462
p   1 1.0 
        1.5876910000         2.5403734581
p   1 1.0 
        0.6615380000         0.8504202302
p   1 1.0 
        0.2756410000         0.2846884572
p   1 1.0 
        0.1148500000         0.0953023999
p   1 1.0 
        0.0478540000         0.0319034680
d   7 1.0 
    38933.2915440000     46572.0662416864
    15573.3166180000     23269.4286059200
     6229.3266470000     26121.7698594031
     2491.7306590000     24387.7829800367
      996.6922640000     26291.1761786242
      398.6769050000     23958.5994014499
      159.4707620000     16247.8933905941
d   1 1.0 
       63.7883050000      4104.5631541937
d   1 1.0 
       25.5153220000       825.7943878925
d   1 1.0 
       10.2061290000       166.1410407984
d   1 1.0 
        4.0824520000        33.4258135301
d   1 1.0 
        1.6329810000         6.7249190969
d   1 1.0 
        0.6531920000         1.3529806436
d   1 1.0 
        0.2612770000         0.2722056592
d   1 1.0 
        0.1045110000         0.0547650627
d   1 1.0 
        0.0418040000         0.0110179628
f   6 1.0 
     4035.8413290000     49260.8367384417
     1552.2466650000     42474.1211389361
      597.0179480000     48000.3842431296
      229.6222880000     46516.5742749474
       88.3162650000     33125.9538993660
       33.9677940000     13028.7856284556
f   1 1.0 
       13.0645360000      1850.1696671323
f   1 1.0 
        5.0248220000       215.5368906459
f   1 1.0 
        1.9326240000        25.1091295974
f   1 1.0 
        0.7433170000         2.9251067932
f   1 1.0 
        0.2858910000         0.3407620072
f   1 1.0 
        0.1099580000         0.0396972526

[5D]
[7F]
[9G]
[MO]
 Sym=     1a
 Ene= -4.04112171563302E+03
 Spin= Alpha
 Occup= 1.000000
  1       0.080559760810
  2       0.062916839546
  3       0.108723592498
  4       0.175081475516
  5       0.263883463174
  6       0.306747766322
  7       0.197324166958
  8       0.033452639637
  9       0.000825549455
 10      -0.000570028231
 11       0.000419011393
 12      -0.000314402000
 13       0.000224573111
 14      -0.000150994882
 15       0.000099853440
 16      -0.000065705291
 17       0.000042380534
 18      -0.000026212163
 19       0.000014812431
 20      -0.000006783927
 21       0.000001827510
 22      -0.000000000004
 23      -0.000000000003
 24       0.000000000004
 25      -0.000000000038
 26      -0.000000000034
 27       0.000000000021
 28       0.000000000006
 29       0.000000000004
 30      -0.000000000005
 31      -0.000000000008
 32      -0.000000000007
 33       0.000000000005
 34       0.000000000005
 35       0.000000000005
 36      -0.000000000004
 37      -0.000000000004
 38      -0.000000000003
 39       0.000000000003
 40       0.000000000003
 41       0.000000000003
 42      -0.000000000002
 43      -0.000000000001
 44      -0.000000000001
 45       0.000000000001
 46       0.000000000000
 47       0.000000000001
 48      -0.000000000000
 49      -0.000000000000
 50      -0.000000000001
 51       0.000000000000
 52       0.000000000000
 53       0.000000000000
 54      -0.000000000000
 55      -0.000000000000
 56      -0.000000000000
 57       0.000000000000
 58       0.000000000000
 59       0.000000000000
 60      -0.000000000000
 61      -0.000000001784
 62      -0.000000006828
 63      -0.000000005624
 64       0.000000001532
 65       0.000000007839
 66       0.000000003405
 67       0.000000013033
 68       0.000000010734
 69      -0.000000002924
 70      -0.000000014961
 71      -0.000000003129
 72      -0.000000011977
 73      -0.000000009865
 74       0.000000002687
 75       0.000000013750
 76       0.000000001637
 77       0.000000006265
 78       0.000000005160
 79      -0.000000001406
 80      -0.000000007192
 81      -0.000000000651
 82      -0.000000002491
 83      -0.000000002052
 84       0.000000000559
 85       0.000000002859
 86       0.000000000387
 87       0.000000001483
 88       0.000000001221
 89      -0.000000000333
 90      -0.000000001702
 91      -0.000000000295
 92      -0.000000001129
 93      -0.000000000930
 94       0.000000000253
 95       0.000000001296
 96       0.000000000160
 97       0.000000000614
 98       0.000000000506
 99      -0.000000000138
100      -0.000000000705
101      -0.000000000064
102      -0.000000000243
103      -0.000000000200
104       0.000000000055
105       0.000000000279
106       0.000000000023
107       0.000000000087
108       0.000000000071
109      -0.000000000019
110      -0.000000000100
111      -0.000000000000
112      -0.000000000000
113      -0.000000000001
114      -0.000000000000
115      -0.000000000003
116      -0.000000000000
117       0.000000000000
118       0.000000000001
119       0.000000000001
120       0.000000000002
121       0.000000000000
122       0.000000000005
123       0.000000000001
124      -0.000000000000
125      -0.000000000001
126      -0.000000000001
127      -0.000000000002
128       0.000000000000
129      -0.000000000004
130      -0.000000000001
131       0.000000000000
132       0.000000000000
133       0.000000000000
134       0.000000000001
135      -0.000000000000
136       0.000000000002
137       0.000000000000
138      -0.000000000000
139      -0.000000000000
140      -0.000000000000
141      -0.000000000000
142       0.000000000000
143      -0.000000000000
144      -0.000000000000
145       0.000000000000
146       0.000000000000
147       0.000000000000
148       0.000000000000
149      -0.000000000000
150       0.000000000001
151       0.000000000000
152      -0.000000000000
153      -0.000000000000
154      -0.000000000000
155      -0.000000000000
156       0.000000000000
157      -0.000000000000
158      -0.000000000000
159       0.000000000000
 Sym=     1a
 Ene= -7.56783945387996E+02
 Spin= Alpha
 Occup= 1.000000
  1      -0.033641541728
  2      -0.028344830609
  3      -0.047943526070
  4      -0.084514874012
  5      -0.137371697683
  6      -0.180016277590
  7      -0.081945457850
  8       0.357633545420
  9       0.618096588984
 10       0.179418293046
 11      -0.002315681450
 12       0.002241675325
 13      -0.001266308075
 14       0.000693267525
 15      -0.000405900060
 16       0.000258209495
 17      -0.000164269503
 18       0.000100595874
 19      -0.000056677186
 20       0.000025919389
 21      -0.000006978035
 22      -0.000000000640
 23      -0.000000000598
 24       0.000000000337
 25      -0.000000001161
 26      -0.000000001078
 27       0.000000000626
 28      -0.000000001650
 29      -0.000000001559
 30       0.000000000844
 31      -0.000000001035
 32      -0.000000000971
 33       0.000000000557
 34      -0.000000000173
 35      -0.000000000144
 36       0.000000000085
 37       0.000000000007
 38      -0.000000000006
 39      -0.000000000007
 40      -0.000000000021
 41      -0.000000000013
 42       0.000000000011
 43       0.000000000009
 44       0.000000000005
 45      -0.000000000004
 46       0.000000000006
 47       0.000000000012
 48      -0.000000000001
 49      -0.000000000000
 50      -0.000000000007
 51      -0.000000000002
 52      -0.000000000004
 53       0.000000000000
 54       0.000000000002
 55      -0.000000000001
 56      -0.000000000002
 57       0.000000000000
 58      -0.000000000000
 59       0.000000000000
 60       0.000000000000
 61       0.000000002092
 62       0.000000008042
 63       0.000000006569
 64      -0.000000001802
 65      -0.000000009264
 66      -0.000000069190
 67      -0.000000264819
 68      -0.000000218084
 69       0.000000059412
 70       0.000000304032
 71       0.000000029630
 72       0.000000113373
 73       0.000000093344
 74      -0.000000025426
 75      -0.000000130176
 76      -0.000000018066
 77      -0.000000069114
 78      -0.000000056909
 79       0.000000015498
 80       0.000000079356
 81       0.000000006533
 82       0.000000024984
 83       0.000000020572
 84      -0.000000005601
 85      -0.000000028688
 86      -0.000000002919
 87      -0.000000011161
 88      -0.000000009189
 89       0.000000002503
 90       0.000000012817
 91       0.000000003153
 92       0.000000012064
 93       0.000000009933
 94      -0.000000002707
 95      -0.000000013851
 96      -0.000000002066
 97      -0.000000007905
 98      -0.000000006510
 99       0.000000001775
100       0.000000009076
101       0.000000000607
102       0.000000002324
103       0.000000001913
104      -0.000000000522
105      -0.000000002668
106      -0.000000000240
107      -0.000000000919
108      -0.000000000757
109       0.000000000206
110       0.000000001055
111       0.000000000020
112      -0.000000000002
113      -0.000000000020
114      -0.000000000016
115      -0.000000000129
116       0.000000000006
117      -0.000000000028
118      -0.000000000033
119      -0.000000000008
120      -0.000000000014
121      -0.000000000003
122      -0.000000000008
123      -0.000000000009
124       0.000000000021
125       0.000000000026
126       0.000000000005
127       0.000000000014
128       0.000000000017
129       0.000000000039
130       0.000000000016
131      -0.000000000011
132      -0.000000000010
133      -0.000000000000
134      -0.000000000001
135      -0.000000000009
136      -0.000000000003
137      -0.000000000007
138       0.000000000004
139       0.000000000002
140      -0.000000000001
141      -0.000000000003
142       0.000000000004
143      -0.000000000010
144       0.000000000002
145      -0.000000000001
146      -0.000000000003
147      -0.000000000001
148      -0.000000000001
149      -0.000000000002
150      -0.000000000004
151      -0.000000000002
152      -0.000000000001
153       0.000000000001
154       0.000000000000
155      -0.000000000000
156       0.000000000001
157      -0.000000000001
158       0.000000000000
159       0.000000000006
 Sym=     1a
 Ene= -6.39219256843825E+02
 Spin= Alpha
 Occup= 1.000000
  1       0.000000000002
  2       0.000000000002
  3       0.000000000003
  4       0.000000000005
  5       0.000000000008
  6       0.000000000010
  7       0.000000000005
  8      -0.000000000023
  9      -0.000000000035
 10      -0.000000000018
 11       0.000000000022
 12      -0.000000000033
 13       0.000000000058
 14      -0.000000000068
 15       0.000000000111
 16      -0.000000000128
 17       0.000000000089
 18      -0.000000000051
 19       0.000000000035
 20      -0.000000000026
 21       0.000000000009
 22       0.126489046198
 23      -0.108996302009
 24       0.051214702808
 25       0.218290077553
 26      -0.188101752158
 27       0.088384423664
 28       0.331769065996
 29      -0.285887216317
 30       0.134331427308
 31       0.176169163416
 32      -0.151805930315
 33       0.071329902574
 34       0.006211326110
 35      -0.005352333652
 36       0.002514930978
 37       0.003174904294
 38      -0.002735832401
 39       0.001285500917
 40      -0.002204146579
 41       0.001899325135
 42      -0.000892446544
 43       0.001352733944
 44      -0.001165658214
 45       0.000547714356
 46      -0.000812616245
 47       0.000700235845
 48      -0.000329023754
 49       0.000481664212
 50      -0.000415052668
 51       0.000195023136
 52      -0.000269434951
 53       0.000232173554
 54      -0.000109092695
 55       0.000130224000
 56      -0.000112214728
 57       0.000052726966
 58      -0.000040776984
 59       0.000035137748
 60      -0.000016510372
 61       0.000000000160
 62       0.000000000224
 63      -0.000000000632
 64      -0.000000000731
 65      -0.000000000081
 66       0.000000000043
 67      -0.000000000199
 68       0.000000000255
 69      -0.000000000228
 70       0.000000000061
 71      -0.000000000003
 72       0.000000000272
 73      -0.000000000447
 74       0.000000000017
 75      -0.000000000074
 76       0.000000000021
 77      -0.000000000119
 78       0.000000000195
 79      -0.000000000020
 80       0.000000000034
 81      -0.000000000017
 82       0.000000000020
 83      -0.000000000038
 84      -0.000000000002
 85      -0.000000000007
 86       0.000000000003
 87      -0.000000000017
 88       0.000000000036
 89       0.000000000012
 90       0.000000000004
 91      -0.000000000004
 92       0.000000000023
 93      -0.000000000037
 94       0.000000000017
 95      -0.000000000006
 96       0.000000000001
 97      -0.000000000012
 98       0.000000000020
 99      -0.000000000007
100       0.000000000003
101      -0.000000000001
102       0.000000000001
103      -0.000000000002
104       0.000000000002
105      -0.000000000000
106       0.000000000000
107      -0.000000000002
108       0.000000000003
109      -0.000000000001
110       0.000000000000
111       0.000000000650
112      -0.000000000602
113      -0.000000142011
114      -0.000000261296
115       0.000000073422
116      -0.000000101239
117      -0.000000106081
118       0.000000034744
119      -0.000000250371
120       0.000000369233
121       0.000000444595
122      -0.000000103129
123      -0.000000218389
124      -0.000000052319
125      -0.000000035572
126       0.000000255251
127      -0.000000337998
128      -0.000000382685
129       0.000000085316
130       0.000000249725
131       0.000000081840
132       0.000000010032
133      -0.000000072346
134       0.000000108505
135       0.000000131798
136      -0.000000030733
137      -0.000000061831
138      -0.000000013775
139       0.000000000084
140      -0.000000000227
141      -0.000000012999
142      -0.000000024084
143       0.000000006783
144      -0.000000009590
145      -0.000000009936
146       0.000000004613
147      -0.000000033090
148       0.000000043204
149       0.000000048484
150      -0.000000010743
151      -0.000000032804
152      -0.000000011060
153      -0.000000000281
154       0.000000002066
155      -0.000000004505
156      -0.000000006347
157       0.000000001603
158       0.000000000775
159      -0.000000000665
 Sym=     1a
 Ene= -6.39219256839250E+02
 Spin= Alpha
 Occup= 1.000000
  1      -0.000000000028
  2      -0.000000000023
  3      -0.000000000039
  4      -0.000000000069
  5      -0.000000000113
  6      -0.000000000147
  7      -0.000000000068
  8       0.000000000274
  9       0.000000000534
 10       0.000000000184
 11       0.000000000022
 12      -0.000000000089
 13       0.000000000052
 14      -0.000000000018
 15      -0.000000000006
 16       0.000000000020
 17      -0.000000000017
 18       0.000000000010
 19      -0.000000000010
 20       0.000000000009
 21      -0.000000000003
 22       0.024319621859
 23       0.095861492917
 24       0.143950507494
 25       0.041969896215
 26       0.165434188582
 27       0.248424416094
 28       0.063788118170
 29       0.251435827237
 30       0.377568863541
 31       0.033871450303
 32       0.133512264725
 33       0.200488826869
 34       0.001194230692
 35       0.004707340331
 36       0.007068782384
 37       0.000610428121
 38       0.002406145607
 39       0.003613190977
 40      -0.000423783822
 41      -0.001670443332
 42      -0.002508422904
 43       0.000260085595
 44       0.001025188367
 45       0.001539475125
 46      -0.000156238985
 47      -0.000615852588
 48      -0.000924795653
 49       0.000092607952
 50       0.000365035955
 51       0.000548156612
 52      -0.000051803349
 53      -0.000204195047
 54      -0.000306629699
 55       0.000025037729
 56       0.000098692079
 57       0.000148201060
 58      -0.000007840053
 59      -0.000030903408
 60      -0.000046406134
 61       0.000000000385
 62      -0.000000000636
 63      -0.000000000397
 64       0.000000000195
 65      -0.000000000662
 66       0.000000000295
 67       0.000000000126
 68       0.000000000079
 69       0.000000000075
 70       0.000000000215
 71      -0.000000000131
 72      -0.000000000314
 73      -0.000000000173
 74      -0.000000000023
 75      -0.000000000397
 76       0.000000000068
 77       0.000000000131
 78       0.000000000074
 79       0.000000000011
 80       0.000000000171
 81      -0.000000000009
 82      -0.000000000025
 83      -0.000000000016
 84       0.000000000002
 85      -0.000000000032
 86      -0.000000000007
 87       0.000000000029
 88       0.000000000016
 89      -0.000000000010
 90       0.000000000032
 91      -0.000000000016
 92      -0.000000000024
 93      -0.000000000013
 94       0.000000000001
 95      -0.000000000032
 96       0.000000000004
 97       0.000000000014
 98       0.000000000008
 99      -0.000000000002
100       0.000000000018
101       0.000000000000
102      -0.000000000002
103      -0.000000000001
104       0.000000000001
105      -0.000000000002
106       0.000000000001
107       0.000000000002
108       0.000000000001
109      -0.000000000000
110       0.000000000002
111      -0.000000076753
112      -0.000000187668
113      -0.000000138067
114       0.000000087512
115       0.000000053797
116       0.000000156311
117      -0.000000142081
118       0.000000453085
119       0.000000037104
120      -0.000000021235
121      -0.000000082917
122      -0.000000065671
123      -0.000000245877
124       0.000000424479
125      -0.000000440980
126       0.000000012675
127       0.000000058774
128       0.000000060937
129       0.000000052439
130       0.000000208471
131      -0.000000394262
132       0.000000131909
133       0.000000013103
134      -0.000000004386
135      -0.000000025069
136      -0.000000019659
137      -0.000000073039
138       0.000000124471
139      -0.000000006853
140      -0.000000017488
141      -0.000000012899
142       0.000000008110
143       0.000000004973
144       0.000000014417
145      -0.000000012969
146       0.000000056833
147      -0.000000002448
148      -0.000000008213
149      -0.000000007525
150      -0.000000006565
151      -0.000000026348
152       0.000000050494
153      -0.000000004534
154      -0.000000002222
155      -0.000000001232
156       0.000000001580
157       0.000000001092
158       0.000000003628
159      -0.000000004951
 Sym=     1a
 Ene= -6.39219118821774E+02
 Spin= Alpha
 Occup= 1.000000
  1      -0.000000000179
  2      -0.000000000150
  3      -0.000000000255
  4      -0.000000000447
  5      -0.000000000734
  6      -0.000000000923
  7      -0.000000000534
  8       0.000000001666
  9       0.000000003956
 10       0.000000000944
 11      -0.000000000151
 12      -0.000000000040
 13      -0.000000000008
 14       0.000000000009
 15       0.000000000122
 16      -0.000000000169
 17       0.000000000095
 18      -0.000000000051
 19       0.000000000046
 20      -0.000000000034
 21       0.000000000012
 22       0.117947988619
 23       0.097123739290
 24      -0.084604614041
 25       0.203550200296
 26       0.167612494434
 27      -0.146007459190
 28       0.309365882578
 29       0.254745940749
 30      -0.221909516226
 31       0.164273277643
 32       0.135270089561
 33      -0.117833948744
 34       0.005792167543
 35       0.004769534258
 36      -0.004154747378
 37       0.002960692993
 38       0.002437969324
 39      -0.002123718252
 40      -0.002055147546
 41      -0.001692301965
 42       0.001474166445
 43       0.001261286406
 44       0.001038600586
 45      -0.000904726312
 46      -0.000757838233
 47      -0.000624038498
 48       0.000543600717
 49       0.000449163542
 50       0.000369861716
 51      -0.000322186996
 52      -0.000251196531
 53      -0.000206846659
 54       0.000180184380
 55       0.000121449112
 56       0.000100006731
 57      -0.000087115986
 58      -0.000038020591
 59      -0.000031307886
 60       0.000027272339
 61       0.000000000185
 62       0.000000000298
 63       0.000000000279
 64      -0.000000000053
 65      -0.000000000506
 66       0.000000000062
 67       0.000000000148
 68       0.000000000128
 69      -0.000000000031
 70      -0.000000000176
 71      -0.000000000066
 72      -0.000000000095
 73      -0.000000000089
 74       0.000000000022
 75       0.000000000076
 76       0.000000000049
 77       0.000000000037
 78       0.000000000042
 79      -0.000000000009
 80      -0.000000000032
 81      -0.000000000020
 82       0.000000000008
 83      -0.000000000001
 84      -0.000000000000
 85      -0.000000000009
 86       0.000000000008
 87      -0.000000000007
 88      -0.000000000003
 89      -0.000000000004
 90       0.000000000012
 91      -0.000000000009
 92      -0.000000000008
 93      -0.000000000009
 94       0.000000000011
 95       0.000000000009
 96       0.000000000004
 97       0.000000000002
 98       0.000000000003
 99      -0.000000000007
100      -0.000000000001
101      -0.000000000001
102       0.000000000002
103       0.000000000001
104       0.000000000003
105      -0.000000000002
106       0.000000000001
107       0.000000000000
108       0.000000000000
109      -0.000000000001
110      -0.000000000000
111       0.000000195420
112       0.000000039332
113       0.000000060863
114      -0.000000042944
115      -0.000000139532
116       0.000000109363
117      -0.000000175573
118      -0.000000309724
119      -0.000000085250
120      -0.000000200125
121       0.000000014814
122      -0.000000290694
123      -0.000000167766
124       0.000000188760
125       0.000000263021
126       0.000000076275
127       0.000000187491
128      -0.000000003558
129       0.000000333502
130       0.000000141506
131      -0.000000145141
132      -0.000000091536
133      -0.000000025051
134      -0.000000058493
135       0.000000004714
136      -0.000000082691
137      -0.000000049619
138       0.000000056350
139       0.000000017939
140       0.000000003602
141       0.000000005550
142      -0.000000003966
143      -0.000000013000
144       0.000000010051
145      -0.000000016152
146      -0.000000033566
147      -0.000000009808
148      -0.000000024257
149       0.000000000284
150      -0.000000044197
151      -0.000000018043
152       0.000000018233
153       0.000000004062
154       0.000000001005
155       0.000000002115
156      -0.000000000457
157       0.000000001295
158       0.000000002230
159      -0.000000002901
 Sym=     1a
 Ene= -1.92810249292726E+02
 Spin= Alpha
 Occup= 1.000000
  1      -0.016431872798
  2      -0.014050710863
  3      -0.023550373778
  4      -0.042644388199
  5      -0.069166668009
  6      -0.095505620657
  7      -0.032791207747
  8       0.282601545340
  9       0.695717924921
 10      -0.163204857949
 11      -0.996673366121
 12      -0.155578674366
 13      -0.017663441614
 14       0.013543672945
 15      -0.009678837560
 16       0.006686087181
 17      -0.004409994022
 18       0.002754154726
 19      -0.001564860190
 20       0.000718578581
 21      -0.000193829297
 22      -0.000000002711
 23      -0.000000002511
 24       0.000000001406
 25      -0.000000005040
 26      -0.000000004666
 27       0.000000002620
 28      -0.000000007862
 29      -0.000000007282
 30       0.000000004068
 31       0.000000002516
 32       0.000000002318
 33      -0.000000001359
 34       0.000000021931
 35       0.000000020259
 36      -0.000000011264
 37       0.000000007045
 38       0.000000006615
 39      -0.000000003639
 40      -0.000000000622
 41      -0.000000000604
 42       0.000000000287
 43       0.000000000513
 44       0.000000000507
 45      -0.000000000210
 46      -0.000000000096
 47      -0.000000000147
 48       0.000000000013
 49       0.000000000100
 50       0.000000000145
 51      -0.000000000031
 52      -0.000000000098
 53      -0.000000000127
 54       0.000000000032
 55       0.000000000017
 56       0.000000000033
 57      -0.000000000001
 58      -0.000000000011
 59      -0.000000000016
 60       0.000000000004
 61       0.000001616168
 62       0.000006185802
 63       0.000005094609
 64      -0.000001387834
 65      -0.000007101442
 66       0.000002212078
 67       0.000008466463
 68       0.000006973572
 69      -0.000001899451
 70      -0.000009719327
 71       0.000000963817
 72       0.000003689251
 73       0.000003038658
 74      -0.000000827782
 75      -0.000004235197
 76      -0.000000111788
 77      -0.000000428136
 78      -0.000000352602
 79       0.000000096124
 80       0.000000491493
 81       0.000000078893
 82       0.000000302101
 83       0.000000248880
 84      -0.000000067807
 85      -0.000000346762
 86      -0.000000002730
 87      -0.000000010524
 88      -0.000000008694
 89       0.000000002365
 90       0.000000012060
 91       0.000000013147
 92       0.000000050358
 93       0.000000041482
 94      -0.000000011284
 95      -0.000000057804
 96      -0.000000018663
 97      -0.000000071453
 98      -0.000000058852
 99       0.000000016018
100       0.000000082026
101       0.000000002260
102       0.000000008658
103       0.000000007132
104      -0.000000001936
105      -0.000000009937
106      -0.000000001363
107      -0.000000005219
108      -0.000000004299
109       0.000000001169
110       0.000000005991
111      -0.000000000245
112      -0.000000000016
113       0.000000000036
114       0.000000000101
115       0.000000000655
116      -0.000000000143
117       0.000000000283
118       0.000000000001
119      -0.000000000038
120      -0.000000000187
121      -0.000000000019
122      -0.000000000709
123      -0.000000000119
124      -0.000000000045
125       0.000000000129
126       0.000000000114
127       0.000000000360
128      -0.000000000020
129       0.000000001117
130       0.000000000114
131      -0.000000000023
132      -0.000000000029
133      -0.000000000038
134      -0.000000000109
135       0.000000000045
136      -0.000000000297
137      -0.000000000018
138       0.000000000014
139      -0.000000000027
140      -0.000000000001
141      -0.000000000000
142      -0.000000000029
143      -0.000000000004
144      -0.000000000017
145       0.000000000007
146      -0.000000000013
147      -0.000000000012
148      -0.000000000035
149       0.000000000006
150      -0.000000000101
151      -0.000000000008
152       0.000000000002
153      -0.000000000001
154       0.000000000001
155       0.000000000005
156      -0.000000000003
157       0.000000000013
158      -0.000000000001
159       0.000000000018
 Sym=     1a
 Ene= -1.59311952180220E+02
 Spin= Alpha
 Occup= 1.000000
  1       0.000000000662
  2       0.000000000567
  3       0.000000000948
  4       0.000000001723
  5       0.000000002782
  6       0.000000003862
  7       0.000000001333
  8      -0.000000011402
  9      -0.000000028865
 10       0.000000008321
 11       0.000000038391
 12       0.000000008028
 13       0.000000001173
 14      -0.000000001900
 15       0.000000000145
 16       0.000000000266
 17      -0.000000000018
 18       0.000000000030
 19      -0.000000000083
 20       0.000000000046
 21      -0.000000000011
 22      -0.065611926277
 23      -0.054033415586
 24       0.047066137405
 25      -0.121670988596
 26      -0.100199757349
 27       0.087279612005
 28      -0.189053760313
 29      -0.155691517953
 30       0.135616049745
 31       0.075713614528
 32       0.062352462773
 33      -0.054312494274
 34       0.500321487071
 35       0.412029952310
 36      -0.358901212373
 37       0.177753252003
 38       0.146385205798
 39      -0.127509729481
 40      -0.005259321536
 41      -0.004331211156
 42       0.003772728023
 43       0.004455308652
 44       0.003669082196
 45      -0.003195976662
 46      -0.002561860490
 47      -0.002109769947
 48       0.001837728159
 49       0.001448746127
 50       0.001193086388
 51      -0.001039245292
 52      -0.000800794896
 53      -0.000659478896
 54       0.000574443199
 55       0.000386127753
 56       0.000317987922
 57      -0.000276985359
 58      -0.000120876085
 59      -0.000099545126
 60       0.000086709397
 61       0.000000002654
 62       0.000000005513
 63       0.000000004856
 64      -0.000000001024
 65      -0.000000007465
 66       0.000000003892