[Molden Format]
[Title]
 Molden file created by orca_2mkl for BaseName=/data01/Nikolayandreadi/heavy/cations/Th_4+

[Atoms] AU
Th   1  90          0.0415890928         1.5388172189        -3.6027401976 
[GTO]
  1 0
s   9 1.0 
 56363088.8897159994     14778.1042965716
 25619585.8589619994     -5353.8940985092
 11645266.2995280009      8426.6246843710
  5293302.8634219998       355.2974589112
  2406046.7561010001      3966.2398531229
  1093657.6164090000      1871.6925969518
   497117.0983680000      2554.3549383654
   225962.3174400000      1947.5823690279
   102710.1442910000      2003.9339351483
s   1 1.0 
    46686.4292230000      2263.6177257250
s   1 1.0 
    21221.1041920000      1253.1009969054
s   1 1.0 
     9645.9564510000       693.6957997042
s   1 1.0 
     4384.5256600000       384.0184181081
s   1 1.0 
     1992.9662090000       212.5861876238
s   1 1.0 
      905.8937310000       117.6841657205
s   1 1.0 
      411.7698780000        65.1479902207
s   1 1.0 
      187.1681260000        36.0648401212
s   1 1.0 
       85.0764210000        19.9648936444
s   1 1.0 
       38.6711000000        11.0522318430
s   1 1.0 
       17.5777730000         6.1183311760
s   1 1.0 
        7.9898970000         3.3870060920
s   1 1.0 
        3.6317710000         1.8749899082
s   1 1.0 
        1.6508050000         1.0379631227
s   1 1.0 
        0.7503660000         0.5745991150
s   1 1.0 
        0.3410750000         0.3180881630
s   1 1.0 
        0.1550340000         0.1760882213
s   1 1.0 
        0.0704700000         0.0974795007
s   1 1.0 
        0.0320320000         0.0539632545
s   1 1.0 
        0.0145600000         0.0298731571
p   8 1.0 
   801557.4232150000    111526.6618928219
   333982.2596730000      9806.7644992234
   139159.2748640000     32786.6140208934
    57983.0311930000     16563.0181260814
    24159.5963310000     16114.3065299024
    10066.4984710000     13167.2436378249
     4194.3743630000     12484.9755041257
     1747.6559850000     11474.1273212331
p   1 1.0 
      728.1899940000      5391.9514325668
p   1 1.0 
      303.4124970000      1805.0195856541
p   1 1.0 
      126.4218740000       604.2516814379
p   1 1.0 
       52.6757810000       202.2804062426
p   1 1.0 
       21.9482420000        67.7157609165
p   1 1.0 
        9.1451010000        22.6686533209
p   1 1.0 
        3.8104590000         7.5886007462
p   1 1.0 
        1.5876910000         2.5403734581
p   1 1.0 
        0.6615380000         0.8504202302
p   1 1.0 
        0.2756410000         0.2846884572
p   1 1.0 
        0.1148500000         0.0953023999
p   1 1.0 
        0.0478540000         0.0319034680
d   7 1.0 
    38933.2915440000     46572.0662416863
    15573.3166180000     23269.4286059199
     6229.3266470000     26121.7698594031
     2491.7306590000     24387.7829800367
      996.6922640000     26291.1761786242
      398.6769050000     23958.5994014499
      159.4707620000     16247.8933905941
d   1 1.0 
       63.7883050000      4104.5631541937
d   1 1.0 
       25.5153220000       825.7943878925
d   1 1.0 
       10.2061290000       166.1410407984
d   1 1.0 
        4.0824520000        33.4258135301
d   1 1.0 
        1.6329810000         6.7249190969
d   1 1.0 
        0.6531920000         1.3529806436
d   1 1.0 
        0.2612770000         0.2722056592
d   1 1.0 
        0.1045110000         0.0547650627
d   1 1.0 
        0.0418040000         0.0110179628
f   6 1.0 
     4035.8413290000     49260.8367384417
     1552.2466650000     42474.1211389361
      597.0179480000     48000.3842431296
      229.6222880000     46516.5742749474
       88.3162650000     33125.9538993660
       33.9677940000     13028.7856284556
f   1 1.0 
       13.0645360000      1850.1696671323
f   1 1.0 
        5.0248220000       215.5368906459
f   1 1.0 
        1.9326240000        25.1091295974
f   1 1.0 
        0.7433170000         2.9251067932
f   1 1.0 
        0.2858910000         0.3407620072
f   1 1.0 
        0.1099580000         0.0396972526

[5D]
[7F]
[9G]
[MO]
 Sym=     1a
 Ene= -4.04235479474997E+03
 Spin= Alpha
 Occup= 2.000000
  1      -0.080559731829
  2      -0.062916815671
  3      -0.108723549434
  4      -0.175081390882
  5      -0.263883283035
  6      -0.306747616285
  7      -0.197324592130
  8      -0.033452921110
  9      -0.000825433601
 10       0.000570118154
 11      -0.000419000565
 12       0.000314338875
 13      -0.000224567845
 14       0.000151011739
 15      -0.000099848076
 16       0.000065694782
 17      -0.000042378853
 18       0.000026210940
 19      -0.000014810719
 20       0.000006783046
 21      -0.000001827248
 22      -0.000000000000
 23       0.000000000000
 24       0.000000000000
 25       0.000000000000
 26      -0.000000000000
 27      -0.000000000000
 28      -0.000000000000
 29       0.000000000000
 30       0.000000000000
 31       0.000000000000
 32      -0.000000000000
 33      -0.000000000000
 34       0.000000000000
 35       0.000000000000
 36       0.000000000000
 37      -0.000000000000
 38      -0.000000000000
 39      -0.000000000000
 40       0.000000000000
 41       0.000000000000
 42       0.000000000000
 43      -0.000000000000
 44       0.000000000000
 45      -0.000000000000
 46       0.000000000000
 47      -0.000000000000
 48       0.000000000000
 49      -0.000000000000
 50       0.000000000000
 51      -0.000000000000
 52       0.000000000000
 53      -0.000000000000
 54       0.000000000000
 55      -0.000000000000
 56       0.000000000000
 57      -0.000000000000
 58       0.000000000000
 59      -0.000000000000
 60       0.000000000000
 61      -0.000000000000
 62       0.000000000000
 63       0.000000000000
 64       0.000000000000
 65       0.000000000000
 66       0.000000000000
 67      -0.000000000000
 68      -0.000000000000
 69      -0.000000000000
 70      -0.000000000000
 71      -0.000000000000
 72       0.000000000000
 73       0.000000000000
 74       0.000000000000
 75       0.000000000000
 76       0.000000000000
 77      -0.000000000000
 78      -0.000000000000
 79      -0.000000000000
 80      -0.000000000000
 81      -0.000000000000
 82       0.000000000000
 83       0.000000000000
 84      -0.000000000000
 85       0.000000000000
 86       0.000000000000
 87      -0.000000000000
 88      -0.000000000000
 89      -0.000000000000
 90      -0.000000000000
 91      -0.000000000000
 92       0.000000000000
 93       0.000000000000
 94       0.000000000000
 95      -0.000000000000
 96       0.000000000000
 97      -0.000000000000
 98      -0.000000000000
 99      -0.000000000000
100       0.000000000000
101      -0.000000000000
102       0.000000000000
103       0.000000000000
104       0.000000000000
105      -0.000000000000
106       0.000000000000
107      -0.000000000000
108      -0.000000000000
109      -0.000000000000
110       0.000000000000
111      -0.000000000000
112       0.000000000000
113      -0.000000000000
114      -0.000000000000
115       0.000000000000
116       0.000000000000
117       0.000000000000
118       0.000000000000
119      -0.000000000000
120      -0.000000000000
121       0.000000000000
122      -0.000000000000
123      -0.000000000000
124      -0.000000000000
125      -0.000000000000
126       0.000000000000
127       0.000000000000
128      -0.000000000000
129       0.000000000000
130       0.000000000000
131      -0.000000000000
132      -0.000000000000
133      -0.000000000000
134      -0.000000000000
135       0.000000000000
136      -0.000000000000
137      -0.000000000000
138       0.000000000000
139       0.000000000000
140       0.000000000000
141       0.000000000000
142      -0.000000000000
143       0.000000000000
144       0.000000000000
145       0.000000000000
146      -0.000000000000
147      -0.000000000000
148      -0.000000000000
149       0.000000000000
150      -0.000000000000
151      -0.000000000000
152      -0.000000000000
153       0.000000000000
154       0.000000000000
155      -0.000000000000
156       0.000000000000
157       0.000000000000
158       0.000000000000
159       0.000000000000
 Sym=     1a
 Ene= -7.58018504209847E+02
 Spin= Alpha
 Occup= 2.000000
  1      -0.033641535180
  2      -0.028344820999
  3      -0.047943519938
  4      -0.084514815280
  5      -0.137371642821
  6      -0.180016040669
  7      -0.081946821245
  8       0.357634355587
  9       0.618096711054
 10       0.179417631953
 11      -0.002314353436
 12       0.002240409846
 13      -0.001266046731
 14       0.000693451273
 15      -0.000405723998
 16       0.000257938187
 17      -0.000164197678
 18       0.000100553736
 19      -0.000056629857
 20       0.000025895943
 21      -0.000006971220
 22      -0.000000000001
 23      -0.000000000001
 24      -0.000000000000
 25      -0.000000000002
 26      -0.000000000002
 27       0.000000000001
 28      -0.000000000003
 29      -0.000000000005
 30      -0.000000000000
 31      -0.000000000002
 32      -0.000000000001
 33       0.000000000001
 34      -0.000000000002
 35      -0.000000000007
 36      -0.000000000000
 37       0.000000000006
 38       0.000000000007
 39       0.000000000001
 40      -0.000000000006
 41      -0.000000000004
 42      -0.000000000001
 43       0.000000000004
 44      -0.000000000000
 45       0.000000000001
 46      -0.000000000002
 47       0.000000000002
 48      -0.000000000000
 49       0.000000000001
 50      -0.000000000001
 51       0.000000000000
 52      -0.000000000001
 53       0.000000000001
 54      -0.000000000000
 55       0.000000000000
 56      -0.000000000000
 57       0.000000000000
 58      -0.000000000000
 59       0.000000000000
 60      -0.000000000000
 61       0.000000000004
 62       0.000000000001
 63      -0.000000000000
 64      -0.000000000000
 65      -0.000000000000
 66      -0.000000000003
 67       0.000000000000
 68       0.000000000001
 69       0.000000000000
 70       0.000000000003
 71       0.000000000003
 72      -0.000000000000
 73      -0.000000000000
 74      -0.000000000000
 75      -0.000000000003
 76      -0.000000000002
 77      -0.000000000000
 78      -0.000000000000
 79       0.000000000000
 80       0.000000000002
 81       0.000000000001
 82       0.000000000000
 83       0.000000000000
 84       0.000000000000
 85      -0.000000000001
 86      -0.000000000001
 87       0.000000000000
 88       0.000000000000
 89       0.000000000000
 90       0.000000000001
 91       0.000000000001
 92      -0.000000000000
 93      -0.000000000001
 94      -0.000000000000
 95       0.000000000000
 96      -0.000000000001
 97       0.000000000001
 98       0.000000000001
 99       0.000000000000
100      -0.000000000001
101       0.000000000000
102      -0.000000000000
103      -0.000000000001
104      -0.000000000000
105       0.000000000000
106      -0.000000000000
107       0.000000000000
108       0.000000000000
109       0.000000000000
110      -0.000000000000
111       0.000000000000
112       0.000000000000
113       0.000000000000
114      -0.000000000000
115       0.000000000000
116       0.000000000000
117       0.000000000000
118      -0.000000000000
119      -0.000000000000
120      -0.000000000000
121       0.000000000000
122      -0.000000000000
123      -0.000000000000
124      -0.000000000001
125       0.000000000000
126      -0.000000000000
127      -0.000000000000
128      -0.000000000000
129       0.000000000000
130       0.000000000000
131       0.000000000000
132      -0.000000000000
133       0.000000000000
134      -0.000000000000
135       0.000000000000
136      -0.000000000000
137      -0.000000000000
138      -0.000000000000
139       0.000000000000
140      -0.000000000000
141       0.000000000000
142       0.000000000000
143       0.000000000000
144       0.000000000000
145       0.000000000000
146      -0.000000000000
147      -0.000000000000
148      -0.000000000000
149      -0.000000000000
150       0.000000000000
151      -0.000000000000
152      -0.000000000000
153       0.000000000000
154       0.000000000000
155      -0.000000000000
156       0.000000000000
157       0.000000000000
158       0.000000000000
159      -0.000000000000
 Sym=     1a
 Ene= -6.40454148027450E+02
 Spin= Alpha
 Occup= 2.000000
  1       0.000000000000
  2       0.000000000000
  3       0.000000000001
  4       0.000000000001
  5       0.000000000002
  6       0.000000000002
  7       0.000000000001
  8      -0.000000000005
  9      -0.000000000009
 10      -0.000000000002
 11       0.000000000006
 12      -0.000000000010
 13       0.000000000026
 14      -0.000000000024
 15       0.000000000008
 16       0.000000000005
 17      -0.000000000010
 18       0.000000000010
 19      -0.000000000008
 20       0.000000000005
 21      -0.000000000002
 22      -0.044840643308
 23      -0.166082144928
 24       0.030146085326
 25      -0.077384403257
 26      -0.286618717496
 27       0.052025052531
 28      -0.117612921479
 29      -0.435618332616
 30       0.079070434872
 31      -0.062451392510
 32      -0.231309375940
 33       0.041985682380
 34      -0.002201893277
 35      -0.008155439639
 36       0.001480319135
 37      -0.001125798921
 38      -0.004169768424
 39       0.000756867613
 40       0.000781317298
 41       0.002893866872
 42      -0.000525274761
 43      -0.000479410262
 44      -0.001775654397
 45       0.000322304539
 46       0.000288077802
 47       0.001066991392
 48      -0.000193672915
 49      -0.000170756559
 50      -0.000632453383
 51       0.000114798573
 52       0.000095470491
 53       0.000353606534
 54      -0.000064184218
 55      -0.000046151313
 56      -0.000170936652
 57       0.000031027242
 58       0.000014446703
 59       0.000053508142
 60      -0.000009712429
 61       0.000000000001
 62      -0.000000000000
 63      -0.000000000001
 64      -0.000000000001
 65      -0.000000000001
 66      -0.000000000001
 67      -0.000000000002
 68      -0.000000000001
 69      -0.000000000000
 70      -0.000000000009
 71       0.000000000001
 72       0.000000000002
 73       0.000000000001
 74      -0.000000000000
 75       0.000000000008
 76      -0.000000000000
 77      -0.000000000001
 78      -0.000000000000
 79      -0.000000000001
 80      -0.000000000004
 81       0.000000000000
 82       0.000000000001
 83       0.000000000000
 84       0.000000000004
 85       0.000000000002
 86      -0.000000000000
 87      -0.000000000001
 88      -0.000000000000
 89       0.000000000000
 90      -0.000000000001
 91       0.000000000000
 92       0.000000000000
 93       0.000000000000
 94      -0.000000000002
 95       0.000000000000
 96      -0.000000000000
 97      -0.000000000000
 98      -0.000000000000
 99       0.000000000002
100      -0.000000000000
101       0.000000000000
102       0.000000000000
103       0.000000000000
104      -0.000000000002
105       0.000000000000
106      -0.000000000000
107      -0.000000000000
108      -0.000000000000
109       0.000000000001
110      -0.000000000000
111      -0.000000000000
112       0.000000000001
113       0.000000000003
114       0.000000000003
115       0.000000000000
116       0.000000000000
117      -0.000000000000
118       0.000000000000
119       0.000000000000
120      -0.000000000002
121      -0.000000000002
122      -0.000000000000
123      -0.000000000001
124       0.000000000000
125      -0.000000000000
126      -0.000000000000
127       0.000000000001
128       0.000000000001
129       0.000000000000
130       0.000000000000
131      -0.000000000000
132       0.000000000000
133       0.000000000000
134      -0.000000000000
135      -0.000000000000
136      -0.000000000001
137       0.000000000000
138      -0.000000000000
139      -0.000000000000
140      -0.000000000000
141      -0.000000000000
142       0.000000000000
143       0.000000000000
144      -0.000000000000
145       0.000000000000
146       0.000000000000
147       0.000000000000
148       0.000000000000
149      -0.000000000000
150       0.000000000000
151      -0.000000000000
152      -0.000000000000
153      -0.000000000000
154      -0.000000000000
155       0.000000000000
156      -0.000000000000
157       0.000000000000
158       0.000000000000
159      -0.000000000000
 Sym=     1a
 Ene= -6.40454148026994E+02
 Spin= Alpha
 Occup= 2.000000
  1      -0.000000000000
  2      -0.000000000000
  3      -0.000000000000
  4      -0.000000000000
  5      -0.000000000001
  6      -0.000000000000
  7      -0.000000000001
  8       0.000000000003
  9       0.000000000001
 10       0.000000000004
 11      -0.000000000006
 12       0.000000000008
 13      -0.000000000007
 14       0.000000000010
 15      -0.000000000021
 16       0.000000000023
 17      -0.000000000012
 18       0.000000000003
 19      -0.000000000002
 20       0.000000000002
 21      -0.000000000001
 22       0.161134317269
 23      -0.032826460016
 24       0.058829447881
 25       0.278079930746
 26      -0.056650748781
 27       0.101525789603
 28       0.422640631519
 29      -0.086100813451
 30       0.154304281211
 31       0.224418334582
 32      -0.045718749496
 33       0.081934171082
 34       0.007912477286
 35      -0.001611938562
 36       0.002888811506
 37       0.004045544976
 38      -0.000824162862
 39       0.001477011115
 40      -0.002807654376
 41       0.000571978430
 42      -0.001025062567
 43       0.001722755050
 44      -0.000350961552
 45       0.000628970477
 46      -0.001035204141
 47       0.000210892928
 48      -0.000377948591
 49       0.000613611660
 50      -0.000125005645
 51       0.000224026984
 52      -0.000343072072
 53       0.000069891021
 54      -0.000125254141
 55       0.000165844197
 56      -0.000033785963
 57       0.000060549004
 58      -0.000051914055
 59       0.000010575989
 60      -0.000018953599
 61       0.000000000000
 62      -0.000000000000
 63      -0.000000000000
 64      -0.000000000001
 65      -0.000000000000
 66       0.000000000002
 67      -0.000000000000
 68      -0.000000000001
 69       0.000000000000
 70      -0.000000000002
 71      -0.000000000015
 72      -0.000000000001
 73       0.000000000002
 74      -0.000000000001
 75       0.000000000007
 76       0.000000000012
 77       0.000000000001
 78      -0.000000000001
 79       0.000000000000
 80      -0.000000000005
 81      -0.000000000007
 82      -0.000000000000
 83       0.000000000001
 84       0.000000000001
 85       0.000000000003
 86       0.000000000004
 87       0.000000000000
 88      -0.000000000000
 89      -0.000000000002
 90      -0.000000000002
 91      -0.000000000002
 92      -0.000000000000
 93       0.000000000000
 94       0.000000000002
 95       0.000000000001
 96       0.000000000001
 97       0.000000000000
 98      -0.000000000000
 99      -0.000000000002
100      -0.000000000001
101      -0.000000000001
102      -0.000000000000
103       0.000000000000
104       0.000000000006
105       0.000000000000
106       0.000000000000
107       0.000000000000
108      -0.000000000000
109      -0.000000000003
110      -0.000000000000
111       0.000000000000
112      -0.000000000000
113       0.000000000000
114       0.000000000001
115       0.000000000000
116      -0.000000000000
117       0.000000000000
118       0.000000000002
119      -0.000000000001
120      -0.000000000001
121      -0.000000000001
122      -0.000000000000
123       0.000000000000
124      -0.000000000000
125      -0.000000000002
126       0.000000000002
127       0.000000000002
128       0.000000000001
129      -0.000000000000
130      -0.000000000001
131       0.000000000000
132       0.000000000001
133      -0.000000000002
134      -0.000000000001
135       0.000000000000
136       0.000000000000
137       0.000000000000
138       0.000000000000
139      -0.000000000000
140       0.000000000001
141       0.000000000000
142      -0.000000000000
143      -0.000000000000
144      -0.000000000000
145      -0.000000000000
146       0.000000000000
147      -0.000000000000
148      -0.000000000000
149       0.000000000001
150      -0.000000000000
151       0.000000000000
152       0.000000000000
153       0.000000000001
154       0.000000000000
155       0.000000000000
156      -0.000000000001
157       0.000000000000
158       0.000000000000
159      -0.000000000000
 Sym=     1a
 Ene= -6.40454148026159E+02
 Spin= Alpha
 Occup= 2.000000
  1       0.000000000000
  2       0.000000000000
  3      -0.000000000000
  4       0.000000000000
  5      -0.000000000001
  6       0.000000000001
  7      -0.000000000002
  8       0.000000000004
  9      -0.000000000005
 10       0.000000000004
 11      -0.000000000003
 12       0.000000000003
 13      -0.000000000008
 14       0.000000000010
 15      -0.000000000013
 16       0.000000000010
 17      -0.000000000002
 18      -0.000000000002
 19       0.000000000002
 20      -0.000000000000
 21      -0.000000000001
 22      -0.050277202815
 23       0.042917284114
 24       0.161657224451
 25      -0.086766626217
 26       0.074065137682
 27       0.278982345558
 28      -0.131872521686
 29       0.112568125582
 30       0.424012169410
 31      -0.070023110628
 32       0.059772651705
 33       0.225146608759
 34      -0.002468854750
 35       0.002107447025
 36       0.007938154552
 37      -0.001262292783
 38       0.001077509774
 39       0.004058673442
 40       0.000876045595
 41      -0.000747804078
 42      -0.002816765682
 43      -0.000537534813
 44       0.000458846815
 45       0.001728345675
 46       0.000323004864
 47      -0.000275721222
 48      -0.001038563548
 49      -0.000191459387
 50       0.000163432264
 51       0.000615602929
 52       0.000107045502
 53      -0.000091375457
 54      -0.000344185396
 55      -0.000051746781
 56       0.000044171737
 57       0.000166382388
 58       0.000016198247
 59      -0.000013827038
 60      -0.000052082525
 61       0.000000000001
 62      -0.000000000000
 63      -0.000000000001
 64       0.000000000000
 65       0.000000000000
 66       0.000000000000
 67       0.000000000000
 68       0.000000000000
 69       0.000000000001
 70       0.000000000003
 71      -0.000000000009
 72      -0.000000000001
 73       0.000000000001
 74      -0.000000000001
 75       0.000000000001
 76       0.000000000008
 77       0.000000000001
 78      -0.000000000001
 79       0.000000000001
 80      -0.000000000002
 81      -0.000000000004
 82      -0.000000000000
 83       0.000000000001
 84      -0.000000000002
 85       0.000000000001
 86       0.000000000002
 87       0.000000000000
 88      -0.000000000001
 89      -0.000000000000
 90      -0.000000000000
 91      -0.000000000001
 92      -0.000000000000
 93       0.000000000000
 94      -0.000000000001
 95       0.000000000000
 96       0.000000000000
 97       0.000000000000
 98      -0.000000000000
 99       0.000000000002
100      -0.000000000000
101      -0.000000000000
102      -0.000000000000
103       0.000000000000
104      -0.000000000000
105       0.000000000000
106       0.000000000000
107       0.000000000000
108      -0.000000000000
109      -0.000000000000
110      -0.000000000000
111       0.000000000000
112      -0.000000000001
113      -0.000000000001
114       0.000000000001
115      -0.000000000000
116      -0.000000000001
117       0.000000000000
118       0.000000000002
119       0.000000000001
120      -0.000000000000
121      -0.000000000000
122      -0.000000000000
123       0.000000000001
124       0.000000000000
125      -0.000000000001
126      -0.000000000000
127       0.000000000000
128       0.000000000000
129       0.000000000001
130      -0.000000000001
131      -0.000000000000
132       0.000000000000
133       0.000000000000
134      -0.000000000000
135      -0.000000000000
136      -0.000000000001
137       0.000000000000
138      -0.000000000000
139      -0.000000000000
140      -0.000000000000
141      -0.000000000000
142       0.000000000000
143       0.000000000000
144      -0.000000000000
145       0.000000000000
146       0.000000000000
147       0.000000000001
148       0.000000000000
149       0.000000000000
150       0.000000000000
151      -0.000000000000
152      -0.000000000000
153       0.000000000000
154      -0.000000000000
155       0.000000000000
156      -0.000000000000
157       0.000000000000
158       0.000000000000
159       0.000000000000
 Sym=     1a
 Ene= -1.94043698278584E+02
 Spin= Alpha
 Occup= 2.000000
  1      -0.016431961776
  2      -0.014050786889
  3      -0.023550494935
  4      -0.042644619338
  5      -0.069166972336
  6      -0.095506151806
  7      -0.032792075081
  8       0.282603232528
  9       0.695725798829
 10      -0.163212828941
 11      -0.996685706510
 12      -0.155562482432
 13      -0.017666474384
 14       0.013547351301
 15      -0.009678156580
 16       0.006682399657
 17      -0.004407294033
 18       0.002751528979
 19      -0.001562380942
 20       0.000717155525
 21      -0.000193386339
 22       0.000000000000
 23      -0.000000000012
 24       0.000000000003
 25      -0.000000000000
 26      -0.000000000023
 27       0.000000000007
 28       0.000000000003
 29      -0.000000000031
 30       0.000000000010
 31      -0.000000000008
 32      -0.000000000001
 33      -0.000000000002
 34       0.000000000023
 35       0.000000000123
 36      -0.000000000029
 37      -0.000000000053
 38      -0.000000000027
 39      -0.000000000017
 40       0.000000000048
 41       0.000000000029
 42       0.000000000008
 43      -0.000000000029
 44      -0.000000000013
 45      -0.000000000005
 46       0.000000000015
 47       0.000000000007
 48       0.000000000002
 49      -0.000000000008
 50      -0.000000000004
 51      -0.000000000001
 52       0.000000000004
 53       0.000000000002
 54       0.000000000001
 55      -0.000000000002
 56      -0.000000000001
 57      -0.000000000000
 58       0.000000000001
 59       0.000000000000
 60       0.000000000000
 61      -0.000000000036
 62       0.000000000001
 63       0.000000000004
 64       0.000000000001
 65      -0.000000000015
 66      -0.000000000005
 67       0.000000000000
 68      -0.000000000001
 69       0.000000000002
 70      -0.000000000002
 71      -0.000000000013
 72      -0.000000000005
 73      -0.000000000005
 74       0.000000000002
 75       0.000000000008
 76       0.000000000010
 77       0.000000000001
 78      -0.000000000001
 79      -0.000000000001
 80      -0.000000000003
 81      -0.000000000005
 82      -0.000000000001
 83       0.000000000001
 84       0.000000000000
 85       0.000000000002
 86       0.000000000002
 87       0.000000000001
 88       0.000000000001
 89      -0.000000000001
 90      -0.000000000002
 91      -0.000000000001
 92      -0.000000000000
 93       0.000000000000
 94      -0.000000000000
 95       0.000000000000
 96       0.000000000002
 97      -0.000000000001
 98      -0.000000000003
 99       0.000000000000
100       0.000000000002
101      -0.000000000003
102       0.000000000002
103       0.000000000004
104      -0.000000000000
105      -0.000000000003
106       0.000000000001
107      -0.000000000001
108      -0.000000000002
109       0.000000000000
110       0.000000000001
111      -0.000000000000
112      -0.000000000000
113      -0.000000000000
114       0.000000000001
115       0.000000000001
116      -0.000000000000
117      -0.000000000000
118       0.000000000001
119      -0.000000000000
120      -0.000000000000
121      -0.000000000000
122      -0.000000000000
123       0.000000000000
124       0.000000000006
125      -0.000000000001
126       0.000000000000
127       0.000000000000
128      -0.000000000000
129      -0.000000000000
130      -0.000000000000
131      -0.000000000004
132       0.000000000000
133      -0.000000000000
134      -0.000000000000
135       0.000000000000
136       0.000000000001
137      -0.000000000000
138       0.000000000002
139      -0.000000000000
140       0.000000000000
141      -0.000000000000
142      -0.000000000000
143      -0.000000000000
144      -0.000000000000
145      -0.000000000001
146       0.000000000000
147      -0.000000000000
148      -0.000000000000
149       0.000000000001
150      -0.000000000000
151       0.000000000001
152      -0.000000000000
153      -0.000000000000
154       0.000000000000
155      -0.000000000000
156      -0.000000000001
157       0.000000000000
158      -0.000000000001
159       0.000000000001
 Sym=     1a
 Ene= -1.60544376898413E+02
 Spin= Alpha
 Occup= 2.000000
  1       0.000000000002
  2       0.000000000002
  3       0.000000000003
  4       0.000000000005
  5       0.000000000008
  6       0.000000000011
  7       0.000000000003
  8      -0.000000000031
  9      -0.000000000085
 10       0.000000000034
 11       0.000000000105
 12       0.000000000058
 13      -0.000000000125
 14       0.000000000119
 15      -0.000000000045
 16      -0.000000000017
 17       0.000000000048
 18      -0.000000000047
 19       0.000000000036
 20      -0.000000000021
 21       0.000000000005
 22       0.027602843091
 23      -0.093062268893
 24      -0.004189172910
 25       0.051186909230
 26      -0.172575335631
 27      -0.007768432140
 28       0.079534939307
 29      -0.268149983069
 30      -0.012070699101
 31      -0.031854921017
 32       0.107398039180
 33       0.004834493755
 34      -0.210486956813
 35       0.709651310645
 36       0.031944762138
 37      -0.074770976635
 38       0.252088406364
 39       0.011347691575
 40       0.002212742027
 41      -0.007460202129
 42      -0.000335818993
 43      -0.001875438318
 44       0.006322991641
 45       0.000284627758
 46       0.001077660677
 47      -0.003633305101
 48      -0.000163552240
 49      -0.000608812729
 50       0.002052596377
 51       0.000092397067
 52       0.000336587864
 53      -0.001134797268
 54      -0.000051082586
 55      -0.000162219248
 56       0.000546917981
 57       0.000024619360
 58       0.000050728656
 59      -0.000171030343
 60      -0.000007698883
 61      -0.000000000029
 62       0.000000000010
 63       0.000000000010
 64       0.000000000013