[Molden Format]
[Title]
 Molden file created by orca_2mkl for BaseName=/home/petrimatveev_2125/_scratch/CC/Th_OH_4

[Atoms] AU
Th   1  90          0.2628268902        -1.7558106914         0.4050476790 
O    2   8          3.3180605144         0.8585687231         0.2255066887 
O    3   8          1.6651888747        -5.3888809935         1.4230828316 
O    4   8         -1.5355328749        -1.9734939140        -3.1895081147 
O    5   8         -2.3981286044        -0.5220255061         3.1617707145 
H    6   1          4.6877831492         2.0377427128         0.1376571002 
H    7   1          2.3048800683        -7.0195502409         1.8770800866 
H    8   1         -2.3411949354        -2.0717010914        -4.8067999908 
H    9   1         -3.5894629818         0.0316699203         4.4061723813 
[GTO]
  1 0
s   9 1.0 
 56363088.8897159994     14778.1042965716
 25619585.8589619994     -5353.8940985092
 11645266.2995280009      8426.6246843710
  5293302.8634219998       355.2974589112
  2406046.7561010001      3966.2398531229
  1093657.6164090000      1871.6925969518
   497117.0983680000      2554.3549383654
   225962.3174400000      1947.5823690279
   102710.1442910000      2003.9339351483
s   1 1.0 
    46686.4292230000      2263.6177257250
s   1 1.0 
    21221.1041920000      1253.1009969054
s   1 1.0 
     9645.9564510000       693.6957997042
s   1 1.0 
     4384.5256600000       384.0184181081
s   1 1.0 
     1992.9662090000       212.5861876238
s   1 1.0 
      905.8937310000       117.6841657205
s   1 1.0 
      411.7698780000        65.1479902207
s   1 1.0 
      187.1681260000        36.0648401212
s   1 1.0 
       85.0764210000        19.9648936444
s   1 1.0 
       38.6711000000        11.0522318430
s   1 1.0 
       17.5777730000         6.1183311760
s   1 1.0 
        7.9898970000         3.3870060920
s   1 1.0 
        3.6317710000         1.8749899082
s   1 1.0 
        1.6508050000         1.0379631227
s   1 1.0 
        0.7503660000         0.5745991150
s   1 1.0 
        0.3410750000         0.3180881630
s   1 1.0 
        0.1550340000         0.1760882213
s   1 1.0 
        0.0704700000         0.0974795007
s   1 1.0 
        0.0320320000         0.0539632545
s   1 1.0 
        0.0145600000         0.0298731571
p   8 1.0 
   801557.4232150000    111526.6618928219
   333982.2596730000      9806.7644992234
   139159.2748640000     32786.6140208934
    57983.0311930000     16563.0181260814
    24159.5963310000     16114.3065299024
    10066.4984710000     13167.2436378249
     4194.3743630000     12484.9755041257
     1747.6559850000     11474.1273212331
p   1 1.0 
      728.1899940000      5391.9514325668
p   1 1.0 
      303.4124970000      1805.0195856541
p   1 1.0 
      126.4218740000       604.2516814379
p   1 1.0 
       52.6757810000       202.2804062426
p   1 1.0 
       21.9482420000        67.7157609165
p   1 1.0 
        9.1451010000        22.6686533209
p   1 1.0 
        3.8104590000         7.5886007462
p   1 1.0 
        1.5876910000         2.5403734581
p   1 1.0 
        0.6615380000         0.8504202302
p   1 1.0 
        0.2756410000         0.2846884572
p   1 1.0 
        0.1148500000         0.0953023999
p   1 1.0 
        0.0478540000         0.0319034680
d   7 1.0 
    38933.2915440000     46572.0662416863
    15573.3166180000     23269.4286059199
     6229.3266470000     26121.7698594031
     2491.7306590000     24387.7829800367
      996.6922640000     26291.1761786242
      398.6769050000     23958.5994014499
      159.4707620000     16247.8933905941
d   1 1.0 
       63.7883050000      4104.5631541937
d   1 1.0 
       25.5153220000       825.7943878925
d   1 1.0 
       10.2061290000       166.1410407984
d   1 1.0 
        4.0824520000        33.4258135301
d   1 1.0 
        1.6329810000         6.7249190969
d   1 1.0 
        0.6531920000         1.3529806436
d   1 1.0 
        0.2612770000         0.2722056592
d   1 1.0 
        0.1045110000         0.0547650627
d   1 1.0 
        0.0418040000         0.0110179628
f   6 1.0 
     4035.8413290000     49260.8367384417
     1552.2466650000     42474.1211389361
      597.0179480000     48000.3842431296
      229.6222880000     46516.5742749474
       88.3162650000     33125.9538993660
       33.9677940000     13028.7856284556
f   1 1.0 
       13.0645360000      1850.1696671323
f   1 1.0 
        5.0248220000       215.5368906459
f   1 1.0 
        1.9326240000        25.1091295974
f   1 1.0 
        0.7433170000         2.9251067932
f   1 1.0 
        0.2858910000         0.3407620072
f   1 1.0 
        0.1099580000         0.0396972526

  2 0
s   6 1.0 
    27032.3826310000         1.4645050749
     4052.3871392000         1.8244031008
      922.3272271000         2.8547160967
      261.2407098900         4.3654874290
       85.3546413500         5.8940772662
       31.0350352400         6.2963020147
s   1 1.0 
       12.2608607300         4.6698272139
s   1 1.0 
        4.9987076000         2.3826123703
s   1 1.0 
        1.1703108200         0.8019291632
s   1 1.0 
        0.4647474100        -0.4011648063
s   1 1.0 
        0.1850453600         0.2010799377
p   4 1.0 
       63.2749548000         3.0898340730
       14.6270493800         3.3923831935
        4.4501223500         2.9482801524
        1.5275799600         1.7113350234
p   1 1.0 
        0.5293511800         0.6436057935
p   1 1.0 
        0.1747842100         0.1610897223
d   1 1.0 
        2.3140000000        12.3767310624
d   1 1.0 
        0.6450000000         1.3234257612
f   1 1.0 
        1.4280000000        12.7097950062

  3 0
s   6 1.0 
    27032.3826310000         1.4645050749
     4052.3871392000         1.8244031008
      922.3272271000         2.8547160967
      261.2407098900         4.3654874290
       85.3546413500         5.8940772662
       31.0350352400         6.2963020147
s   1 1.0 
       12.2608607300         4.6698272139
s   1 1.0 
        4.9987076000         2.3826123703
s   1 1.0 
        1.1703108200         0.8019291632
s   1 1.0 
        0.4647474100        -0.4011648063
s   1 1.0 
        0.1850453600         0.2010799377
p   4 1.0 
       63.2749548000         3.0898340730
       14.6270493800         3.3923831935
        4.4501223500         2.9482801524
        1.5275799600         1.7113350234
p   1 1.0 
        0.5293511800         0.6436057935
p   1 1.0 
        0.1747842100         0.1610897223
d   1 1.0 
        2.3140000000        12.3767310624
d   1 1.0 
        0.6450000000         1.3234257612
f   1 1.0 
        1.4280000000        12.7097950062

  4 0
s   6 1.0 
    27032.3826310000         1.4645050749
     4052.3871392000         1.8244031008
      922.3272271000         2.8547160967
      261.2407098900         4.3654874290
       85.3546413500         5.8940772662
       31.0350352400         6.2963020147
s   1 1.0 
       12.2608607300         4.6698272139
s   1 1.0 
        4.9987076000         2.3826123703
s   1 1.0 
        1.1703108200         0.8019291632
s   1 1.0 
        0.4647474100        -0.4011648063
s   1 1.0 
        0.1850453600         0.2010799377
p   4 1.0 
       63.2749548000         3.0898340730
       14.6270493800         3.3923831935
        4.4501223500         2.9482801524
        1.5275799600         1.7113350234
p   1 1.0 
        0.5293511800         0.6436057935
p   1 1.0 
        0.1747842100         0.1610897223
d   1 1.0 
        2.3140000000        12.3767310624
d   1 1.0 
        0.6450000000         1.3234257612
f   1 1.0 
        1.4280000000        12.7097950062

  5 0
s   6 1.0 
    27032.3826310000         1.4645050749
     4052.3871392000         1.8244031008
      922.3272271000         2.8547160967
      261.2407098900         4.3654874290
       85.3546413500         5.8940772662
       31.0350352400         6.2963020147
s   1 1.0 
       12.2608607300         4.6698272139
s   1 1.0 
        4.9987076000         2.3826123703
s   1 1.0 
        1.1703108200         0.8019291632
s   1 1.0 
        0.4647474100        -0.4011648063
s   1 1.0 
        0.1850453600         0.2010799377
p   4 1.0 
       63.2749548000         3.0898340730
       14.6270493800         3.3923831935
        4.4501223500         2.9482801524
        1.5275799600         1.7113350234
p   1 1.0 
        0.5293511800         0.6436057935
p   1 1.0 
        0.1747842100         0.1610897223
d   1 1.0 
        2.3140000000        12.3767310624
d   1 1.0 
        0.6450000000         1.3234257612
f   1 1.0 
        1.4280000000        12.7097950062

  6 0
s   3 1.0 
       34.0613410000         0.2556300129
        5.1235746000         0.4613599287
        1.1646626000         0.6811215012
s   1 1.0 
        0.3272304100         0.3083545312
s   1 1.0 
        0.1030724100         0.1296483265
p   1 1.0 
        0.8000000000         1.0784563492

  7 0
s   3 1.0 
       34.0613410000         0.2556300129
        5.1235746000         0.4613599287
        1.1646626000         0.6811215012
s   1 1.0 
        0.3272304100         0.3083545312
s   1 1.0 
        0.1030724100         0.1296483265
p   1 1.0 
        0.8000000000         1.0784563492

  8 0
s   3 1.0 
       34.0613410000         0.2556300129
        5.1235746000         0.4613599287
        1.1646626000         0.6811215012
s   1 1.0 
        0.3272304100         0.3083545312
s   1 1.0 
        0.1030724100         0.1296483265
p   1 1.0 
        0.8000000000         1.0784563492

  9 0
s   3 1.0 
       34.0613410000         0.2556300129
        5.1235746000         0.4613599287
        1.1646626000         0.6811215012
s   1 1.0 
        0.3272304100         0.3083545312
s   1 1.0 
        0.1030724100         0.1296483265
p   1 1.0 
        0.8000000000         1.0784563492

[5D]
[9G]
[MO]
 Sym=     1a
 Ene= -4.04104683823795E+03
 Spin= Alpha
 Occup= 2.000000
  1      -0.080559735156
  2      -0.062916817342
  3      -0.108723557493
  4      -0.175081391890
  5      -0.263883329301
  6      -0.306747592121
  7      -0.197324629127
  8      -0.033452702186
  9      -0.000825774447
 10       0.000570652219
 11      -0.000419879121
 12       0.000315720354
 13      -0.000226686050
 14       0.000154247329
 15      -0.000104769935
 16       0.000073085268
 17      -0.000053298889
 18       0.000036006649
 19      -0.000010305392
 20       0.000004655983
 21      -0.000001063110
 22       0.000000000059
 23      -0.000000000072
 24      -0.000000000041
 25       0.000000000009
 26       0.000000000011
 27      -0.000000000004
 28       0.000000000015
 29       0.000000000012
 30      -0.000000000010
 31      -0.000000000017
 32      -0.000000000007
 33       0.000000000011
 34       0.000000000034
 35       0.000000000014
 36      -0.000000000020
 37      -0.000000000058
 38      -0.000000000027
 39       0.000000000033
 40       0.000000000094
 41       0.000000000047
 42      -0.000000000052
 43      -0.000000000153
 44      -0.000000000084
 45       0.000000000084
 46       0.000000000242
 47       0.000000000151
 48      -0.000000000133
 49      -0.000000000286
 50      -0.000000000237
 51       0.000000000156
 52      -0.000000000626
 53       0.000000000122
 54       0.000000000402
 55       0.000000004411
 56      -0.000000000061
 57      -0.000000002829
 58       0.000000002309
 59       0.000000001164
 60      -0.000000001163
 61      -0.000000000001
 62      -0.000000000000
 63      -0.000000000001
 64       0.000000000000
 65       0.000000000003
 66       0.000000000003
 67      -0.000000000006
 68       0.000000000029
 69      -0.000000000000
 70      -0.000000000016
 71      -0.000000000005
 72       0.000000000017
 73      -0.000000000087
 74      -0.000000000001
 75       0.000000000046
 76       0.000000000022
 77      -0.000000000040
 78       0.000000000150
 79      -0.000000000003
 80      -0.000000000093
 81      -0.000000000051
 82       0.000000000081
 83      -0.000000000270
 84       0.000000000010
 85       0.000000000177
 86       0.000000000122
 87      -0.000000000171
 88       0.000000000491
 89      -0.000000000030
 90      -0.000000000341
 91      -0.000000000347
 92       0.000000000409
 93      -0.000000000860
 94       0.000000000104
 95       0.000000000690
 96       0.000000001147
 97      -0.000000001178
 98       0.000000001588
 99      -0.000000000335
100      -0.000000001870
101      -0.000000011034
102       0.000000010163
103      -0.000000001395
104       0.000000002755
105       0.000000013323
106       0.000000001245
107      -0.000000001089
108      -0.000000000165
109      -0.000000000674
110      -0.000000000609
111       0.000000008005
112       0.000000016803
113      -0.000000001158
114       0.000000002034
115       0.000000008663
116      -0.000000010268
117       0.000000010777
118      -0.000000024296
119      -0.000000050991
120       0.000000003511
121      -0.000000006174
122      -0.000000026285
123       0.000000031156
124      -0.000000032714
125       0.000000052384
126       0.000000109919
127      -0.000000007565
128       0.000000013314
129       0.000000056656
130      -0.000000067158
131       0.000000070537
132      -0.000000102942
133      -0.000000216010
134       0.000000014864
135      -0.000000026165
136      -0.000000111338
137       0.000000131977
138      -0.000000138617
139       0.000000194601
140       0.000000408513
141      -0.000000028126
142       0.000000049449
143       0.000000210587
144      -0.000000249625
145       0.000000262027
146      -0.000000395619
147      -0.000000830899
148       0.000000057289
149      -0.000000100487
150      -0.000000428416
151       0.000000507806
152      -0.000000532603
153      -0.000000124936
154      -0.000000258484
155       0.000000013511
156      -0.000000034525
157      -0.000000129845
158       0.000000157804
159      -0.000000172897
160       0.000000028147
161      -0.000000127254
162       0.000000232505
163      -0.000000643236
164      -0.000001417545
165      -0.000001135930
166       0.000000018087
167       0.000000015742
168      -0.000000001354
169       0.000000460060
170       0.000000394329
171      -0.000000027558
172       0.000002284408
173       0.000001963368
174      -0.000000144569
175       0.000000049093
176       0.000000006118
177       0.000000005357
178      -0.000000012748
179      -0.000000084384
180      -0.000000230131
181      -0.000000029516
182      -0.000000025682
183       0.000000059206
184       0.000000395909
185       0.000000001646
186       0.000000010873
187       0.000000005195
188       0.000000000617
189       0.000000002664
190      -0.000000007861
191       0.000000012519
192       0.000000028094
193      -0.000000127016
194       0.000000232071
195      -0.000000642077
196      -0.000001413883
197      -0.000001117783
198       0.000000008792
199      -0.000000021603
200       0.000000005917
201       0.000000211916
202      -0.000000547441
203       0.000000153245
204       0.000001062614
205      -0.000002715095
206       0.000000756638
207       0.000000039977
208      -0.000000015108
209       0.000000038791
210       0.000000058957
211       0.000000054414
212      -0.000000187963
213       0.000000071149
214      -0.000000181511
215      -0.000000275869
216      -0.000000256233
217       0.000000006939
218       0.000000005964
219      -0.000000005276
220       0.000000005789
221       0.000000006297
222      -0.000000010912
223       0.000000008158
224       0.000000028097
225      -0.000000127033
226       0.000000232100
227      -0.000000642156
228      -0.000001414267
229      -0.000001119990
230      -0.000000010630
231      -0.000000001319
232      -0.000000021519
233      -0.000000271000
234      -0.000000032891
235      -0.000000541892
236      -0.000001340780
237      -0.000000162625
238      -0.000002692974
239      -0.000000068855
240      -0.000000068239
241      -0.000000008225
242      -0.000000016730
243      -0.000000004394
244       0.000000323603
245       0.000000319751
246       0.000000038764
247       0.000000078342
248       0.000000020084
249       0.000000007817
250       0.000000015704
251       0.000000000974
252       0.000000005461
253       0.000000003413
254      -0.000000003576
255       0.000000002342
256       0.000000028041
257      -0.000000126780
258       0.000000231640
259      -0.000000640885
260      -0.000001410511
261      -0.000001104754
262      -0.000000015705
263       0.000000007352
264       0.000000016671
265      -0.000000400898
266       0.000000185849
267       0.000000416082
268      -0.000001982305
269       0.000000921920
270       0.000002067636
271      -0.000000020553
272       0.000000077526
273      -0.000000036016
274      -0.000000029190
275       0.000000034433
276       0.000000097299
277      -0.000000363820
278       0.000000169141
279       0.000000136517
280      -0.000000161526
281       0.000000005694
282       0.000000011267
283      -0.000000003489
284      -0.000000005990
285       0.000000009670
286      -0.000000003891
287       0.000000007100
288      -0.000000081042
289      -0.000002042254
290      -0.000000679225
291       0.000000405538
292       0.000000350077
293      -0.000000026856
294      -0.000000080923
295      -0.000002044321
296      -0.000000677839
297       0.000000190892
298      -0.000000483489
299       0.000000134254
300      -0.000000080924
301      -0.000002044141
302      -0.000000678061
303      -0.000000238874
304      -0.000000029278
305      -0.000000479862
306      -0.000000080833
307      -0.000002045294
308      -0.000000677067
309      -0.000000353047
310       0.000000164132
311       0.000000369964
 Sym=     1a
 Ene= -7.56710509730530E+02
 Spin= Alpha
 Occup= 2.000000
  1      -0.033641530070
  2      -0.028344816728
  3      -0.047943513935
  4      -0.084514801437
  5      -0.137371647452
  6      -0.180015995665
  7      -0.081946709243
  8       0.357634487635
  9       0.618095373743
 10       0.179419863066
 11      -0.002317281201
 12       0.002245375077
 13      -0.001273781810
 14       0.000705443513
 15      -0.000424181321
 16       0.000285752344
 17      -0.000205258268
 18       0.000137283388
 19      -0.000039388916
 20       0.000017790682
 21      -0.000004060461
 22      -0.000000000440
 23      -0.000000000338
 24       0.000000000269
 25      -0.000000000777
 26      -0.000000000439
 27       0.000000000485
 28      -0.000000001598
 29      -0.000000000714
 30       0.000000000986
 31      -0.000000000952
 32      -0.000000000542
 33       0.000000000612
 34       0.000000000193
 35      -0.000000000086
 36      -0.000000000129
 37      -0.000000000288
 38      -0.000000000128
 39       0.000000000184
 40       0.000000000391
 41       0.000000000168
 42      -0.000000000242
 43      -0.000000000584
 44      -0.000000000319
 45       0.000000000349
 46       0.000000000915
 47       0.000000000594
 48      -0.000000000535
 49      -0.000000001078
 50      -0.000000000911
 51       0.000000000627
 52      -0.000000002422
 53       0.000000000471
 54       0.000000001501
 55       0.000000017034
 56      -0.000000000317
 57      -0.000000010848
 58       0.000000008713
 59       0.000000004430
 60      -0.000000004390
 61       0.000000000006
 62       0.000000000077
 63      -0.000000000185
 64      -0.000000000110
 65      -0.000000000020
 66       0.000000000153
 67      -0.000000000092
 68      -0.000000000201
 69      -0.000000000045
 70      -0.000000000005
 71       0.000000000017
 72       0.000000000071
 73      -0.000000000457
 74      -0.000000000052
 75       0.000000000166
 76       0.000000000099
 77      -0.000000000163
 78       0.000000000540
 79      -0.000000000002
 80      -0.000000000329
 81      -0.000000000226
 82       0.000000000315
 83      -0.000000000933
 84       0.000000000047
 85       0.000000000648
 86       0.000000000467
 87      -0.000000000640
 88       0.000000001819
 89      -0.000000000119
 90      -0.000000001275
 91      -0.000000001325
 92       0.000000001530
 93      -0.000000003199
 94       0.000000000413
 95       0.000000002593
 96       0.000000004354
 97      -0.000000004418
 98       0.000000005924
 99      -0.000000001308
100      -0.000000007051
101      -0.000000041866
102       0.000000038540
103      -0.000000005320
104       0.000000010369
105       0.000000050496
106       0.000000004735
107      -0.000000004145
108      -0.000000000611
109      -0.000000002539
110      -0.000000002318
111      -0.000000073237
112      -0.000000154229
113       0.000000010723
114      -0.000000018547
115      -0.000000079627
116       0.000000094350
117      -0.000000098525
118      -0.000000073263
119      -0.000000153671
120       0.000000010566
121      -0.000000018625
122      -0.000000079195
123       0.000000093876
124      -0.000000098658
125       0.000000206088
126       0.000000432504
127      -0.000000029778
128       0.000000052372
129       0.000000222943
130      -0.000000264264
131       0.000000277492
132      -0.000000381292
133      -0.000000800068
134       0.000000055047
135      -0.000000096920
136      -0.000000412371
137       0.000000488822
138      -0.000000513433
139       0.000000719656
140       0.000001510684
141      -0.000000103999
142       0.000000182883
143       0.000000778739
144      -0.000000923112
145       0.000000969012
146      -0.000001475326
147      -0.000003098559
148       0.000000213629
149      -0.000000374756
150      -0.000001597624
151       0.000001893710
152      -0.000001986166
153      -0.000000484856
154      -0.000001003538
155       0.000000052873
156      -0.000000133728
157      -0.000000504448
158       0.000000612702
159      -0.000000670560
160       0.000000098764
161      -0.000000467036
162       0.000000867849
163      -0.000002440468
164      -0.000005374751
165      -0.000004299987
166       0.000000073606
167       0.000000063989
168      -0.000000005429
169       0.000001706496
170       0.000001462683
171      -0.000000102218
172       0.000008642552
173       0.000007427952
174      -0.000000546931
175       0.000000186198
176       0.000000023191
177       0.000000020302
178      -0.000000048366
179      -0.000000320044
180      -0.000000878885
181      -0.000000112589
182      -0.000000097944
183       0.000000226255
184       0.000001511969
185       0.000000005510
186       0.000000045506
187       0.000000023499
188       0.000000002455
189       0.000000010873
190      -0.000000033718
191       0.000000053818
192       0.000000098578
193      -0.000000466165
194       0.000000866235
195      -0.000002436089
196      -0.000005360863
197      -0.000004231237
198       0.000000035643
199      -0.000000087890
200       0.000000024111
201       0.000000786048
202      -0.000002030652
203       0.000000568448
204       0.000004020159
205      -0.000010271928
206       0.000002862562
207       0.000000151622
208      -0.000000057299
209       0.000000147133
210       0.000000223621
211       0.000000206357
212      -0.000000717796
213       0.000000271693
214      -0.000000693291
215      -0.000001053685
216      -0.000000978349
217       0.000000029495
218       0.000000023877
219      -0.000000023621
220       0.000000025179
221       0.000000026771
222      -0.000000047465
223       0.000000033901
224       0.000000098589
225      -0.000000466217
226       0.000000866327
227      -0.000002436333
228      -0.000005362192
229      -0.000004239445
230      -0.000000043266
231      -0.000000005360
232      -0.000000087508
233      -0.000001005224
234      -0.000000122000
235      -0.000002010033
236      -0.000005072484
237      -0.000000615255
238      -0.000010188143
239      -0.000000261141
240      -0.000000258814
241      -0.000000031196
242      -0.000000063456
243      -0.000000016656
244       0.000001235768
245       0.000001221150
246       0.000000148043
247       0.000000299220
248       0.000000076671
249       0.000000033827
250       0.000000067266
251       0.000000004661
252       0.000000023956
253       0.000000013669
254      -0.000000014121
255       0.000000008543
256       0.000000098390
257      -0.000000465287
258       0.000000864600
259      -0.000002431481
260      -0.000005347801
261      -0.000004181596
262      -0.000000063929
263       0.000000029908
264       0.000000067748
265      -0.000001487027
266       0.000000689351
267       0.000001543342
268      -0.000007499316
269       0.000003487747
270       0.000007822133
271      -0.000000077936
272       0.000000294034
273      -0.000000136597
274      -0.000000110717
275       0.000000130603
276       0.000000371410
277      -0.000001389377
278       0.000000645901
279       0.000000521415
280      -0.000000616916
281       0.000000023662
282       0.000000047849
283      -0.000000015664
284      -0.000000027109
285       0.000000041771
286      -0.000000015441
287       0.000000029664
288      -0.000000306000
289      -0.000007709231
290      -0.000002582642
291       0.000001526399
292       0.000001317695
293      -0.000000101127
294      -0.000000305553
295      -0.000007717065
296      -0.000002577389
297       0.000000718566
298      -0.000001819823
299       0.000000505305
300      -0.000000305549
301      -0.000007716296
302      -0.000002578236
303      -0.000000899087
304      -0.000000110204
305      -0.000001806165
306      -0.000000305201
307      -0.000007720446
308      -0.000002574446
309      -0.000001328770
310       0.000000617752
311       0.000001392500
 Sym=     1a
 Ene= -6.39146056521380E+02
 Spin= Alpha
 Occup= 2.000000
  1       0.000000000048
  2       0.000000000043
  3       0.000000000060
  4       0.000000000144
  5       0.000000000138
  6       0.000000000390
  7      -0.000000000136
  8       0.000000000057
  9      -0.000000001787
 10       0.000000001096
 11      -0.000000002526
 12       0.000000004300
 13      -0.000000006356
 14       0.000000009637
 15      -0.000000014463
 16       0.000000021051
 17      -0.000000034088
 18       0.000000050143
 19      -0.000000016739
 20      -0.000000006470
 21       0.000000003466
 22      -0.044651750833
 23      -0.150238387708
 24      -0.077054188720
 25      -0.077058523495
 26      -0.259276469901
 27      -0.132977585482
 28      -0.117117142146
 29      -0.394060485491
 30      -0.202105543414
 31      -0.062189323883
 32      -0.209246526606
 33      -0.107318253054
 34      -0.002191034573
 35      -0.007372106327
 36      -0.003781001644
 37      -0.001124197888
 38      -0.003782556205
 39      -0.001939996195
 40       0.000783736565
 41       0.002637017454
 42       0.001352473229
 43      -0.000487334948
 44      -0.001639725421
 45      -0.000840983225
 46       0.000303946964
 47       0.001022686808
 48       0.000524517837
 49      -0.000198259960
 50      -0.000667082414
 51      -0.000342136888
 52       0.000133815906
 53       0.000450214423
 54       0.000230907914
 55      -0.000088461096
 56      -0.000297437419
 57      -0.000152537948
 58       0.000013277107
 59       0.000044731074
 60       0.000022965824
 61       0.000000316680
 62       0.000000600011
 63      -0.000000209326
 64      -0.000000338336
 65      -0.000000563915
 66      -0.000000484598
 67      -0.000000916560
 68       0.000000320027
 69       0.000000516978
 70       0.000000862696
 71       0.000000981367
 72       0.000001855820
 73      -0.000000647917
 74      -0.000001047542
 75      -0.000001747289
 76      -0.000001638647
 77      -0.000003098033
 78       0.000001082014
 79       0.000001749673
 80       0.000002917459
 81       0.000003040140
 82       0.000005747096
 83      -0.000002007525
 84      -0.000003246544
 85      -0.000005412533
 86      -0.000006225248
 87      -0.000011767376
 88       0.000004110916
 89       0.000006648436
 90       0.000011082502
 91       0.000014056349
 92       0.000026567052
 93      -0.000009282942
 94      -0.000015013717
 95      -0.000025021151
 96      -0.000027588613
 97      -0.000052137569
 98       0.000018214577
 99       0.000029461314
100       0.000049109116
101       0.000051007312
102       0.000096292239
103      -0.000033580659
104      -0.000054344816
105      -0.000090797702
106      -0.000006182973
107      -0.000011704394
108       0.000004064260
109       0.000006581544
110       0.000011016406
111      -0.000000033571
112       0.000000001442
113       0.000000029425
114      -0.000000046784
115       0.000000004395
116       0.000000005904
117       0.000000036676
118       0.000000142468
119      -0.000000006148
120      -0.000000125004
121       0.000000198392
122      -0.000000018617
123      -0.000000025180
124      -0.000000156389
125      -0.000000343461
126       0.000000014870
127       0.000000301568
128      -0.000000478645
129       0.000000044796
130       0.000000060860
131       0.000000377388
132       0.000000913869
133      -0.000000039381
134      -0.000000802243
135       0.000001272948
136      -0.000000119137
137      -0.000000161791
138      -0.000001003944
139      -0.000003415107
140       0.000000145718
141       0.000002995288
142      -0.000004749629
143       0.000000445633
144       0.000000602413
145       0.000003748197
146       0.000011198665
147      -0.000000476944
148      -0.000009816745
149       0.000015561540
150      -0.000001463227
151      -0.000001970350
152      -0.000012283713
153      -0.000024192598
154       0.000001014487
155       0.000021156982
156      -0.000033463584
157       0.000003174315
158       0.000004210515
159       0.000026466807
160      -0.000001673618
161       0.000007937618
162      -0.000015058041
163       0.000042027681
164       0.000075919940
165       0.000161922241
166      -0.000004655980
167      -0.000004369900
168      -0.000000011070
169       0.000021676986
170       0.000020789479
171       0.000000327737
172      -0.000006653052
173      -0.000015465090
174      -0.000006843276
175      -0.000002084222
176      -0.000000545446
177      -0.000000312314
178       0.000000864327
179       0.000003559302