[Molden Format]
[Title]
 Molden file created by orca_2mkl for BaseName=/home/nikolayandreadi/CCact/CmF3

[Atoms] AU
Cm   1  96          0.7005649415         0.9885176304        -1.7063414407 
F    2   9         -1.4559111540        -2.1004211492        -2.5624006075 
F    3   9         -1.4862903913         3.2869990860         0.4888494741 
F    4   9          3.5642578146        -0.3042666945         0.5386380886 
[GTO]
  1 0
s   9 1.0 
 64183659.7122879997     18341.7117038968
 29174390.7783129998     -6758.1714140571
 13261086.7174149994     10363.5572157870
  6027766.6897339998       244.9966118343
  2739893.9498790000      4735.4899330975
  1245406.3408540001      2073.6914683036
   566093.7912970000      2911.1694935105
   257315.3596810000      2119.4045241260
   116961.5271280000      2167.8378182398
s   1 1.0 
    53164.3305130000      2495.3148673636
s   1 1.0 
    24165.6047780000      1381.3646678584
s   1 1.0 
    10984.3658080000       764.7004274204
s   1 1.0 
     4992.8935490000       423.3253950261
s   1 1.0 
     2269.4970680000       234.3458741054
s   1 1.0 
     1031.5895760000       129.7299650246
s   1 1.0 
      468.9043530000        71.8163436899
s   1 1.0 
      213.1383420000        39.7563293323
s   1 1.0 
       96.8810650000        22.0084405283
s   1 1.0 
       44.0368480000        12.1835054485
s   1 1.0 
       20.0167490000         6.7445852707
s   1 1.0 
        9.0985220000         3.7336897659
s   1 1.0 
        4.1356920000         2.0669084135
s   1 1.0 
        1.8798600000         1.1442060044
s   1 1.0 
        0.8544820000         0.6334134502
s   1 1.0 
        0.3884010000         0.3506471770
s   1 1.0 
        0.1765460000         0.1941125004
s   1 1.0 
        0.0802480000         0.1074572582
s   1 1.0 
        0.0364760000         0.0594861001
s   1 1.0 
        0.0165800000         0.0329305123
p   8 1.0 
   919065.4160050000    155084.3037269538
   382943.9233360000     13033.8591220902
   159559.9680560000     44494.9241943929
    66483.3200240000     21741.9357752702
    27701.3833430000     20810.8542073269
    11542.2430600000     16433.3243630285
     4809.2679420000     15112.5581166837
     2003.8616420000     13426.4666313791
p   1 1.0 
      834.9423510000      6397.5059864314
p   1 1.0 
      347.8926460000      2141.6408813544
p   1 1.0 
      144.9552690000       716.9396436587
p   1 1.0 
       60.3980290000       240.0040364015
p   1 1.0 
       25.1658450000        80.3441914649
p   1 1.0 
       10.4857690000        26.8961702682
p   1 1.0 
        4.3690700000         9.0038104076
p   1 1.0 
        1.8204460000         3.0141324951
p   1 1.0 
        0.7585190000         1.0090162666
p   1 1.0 
        0.3160500000         0.3377806999
p   1 1.0 
        0.1316870000         0.1130755524
p   1 1.0 
        0.0548700000         0.0378537394
d   7 1.0 
    45453.5554980000     69158.5304221611
    18181.4221990000     33549.0608196543
     7272.5688800000     36764.8300380107
     2909.0275520000     33296.4812113045
     1163.6110210000     35048.2136713992
      465.4444080000     31458.4333595288
      186.1777630000     21284.8094929165
d   1 1.0 
       74.4711050000      5382.0624155238
d   1 1.0 
       29.7884420000      1082.8136323072
d   1 1.0 
       11.9153770000       217.8505758998
d   1 1.0 
        4.7661510000        43.8292187085
d   1 1.0 
        1.9064600000         8.8179687304
d   1 1.0 
        0.7625840000         1.7740813862
d   1 1.0 
        0.3050340000         0.3569270978
d   1 1.0 
        0.1220130000         0.0718093124
d   1 1.0 
        0.0488050000         0.0144471652
f   6 1.0 
     5137.9626210000     79478.5378028876
     1976.1394700000     69378.2233604487
      760.0536420000     74836.3018841376
      292.3283240000     73855.3374665989
      112.4339710000     54388.1326524370
       43.2438350000     22700.0167896505
f   1 1.0 
       16.6322440000      3185.2203837389
f   1 1.0 
        6.3970170000       371.0645496036
f   1 1.0 
        2.4603910000        43.2274255115
f   1 1.0 
        0.9463040000         5.0358072630
f   1 1.0 
        0.3639630000         0.5866497101
f   1 1.0 
        0.1399860000         0.0683424334

  2 0
s   6 1.0 
    35479.1004410000         1.9229128581
     5318.4728983000         2.2734773358
     1210.4810975000         3.4747482552
      342.8551814000         5.2879612972
      112.0194318100         7.1666332516
       40.7147402500         7.7556346254
s   1 1.0 
       16.0396781100         5.7122450312
s   1 1.0 
        6.5038186700         2.9025947842
s   1 1.0 
        1.5440477500         0.9872011154
s   1 1.0 
        0.6122345300        -0.4932856223
s   1 1.0 
        0.2402798000         0.2445952611
p   4 1.0 
       80.2339004800         4.2755032106
       18.5940107400         4.7314752302
        5.6867902700         4.0864798013
        1.9511006300         2.2989954518
p   1 1.0 
        0.6697021100         0.8635593126
p   1 1.0 
        0.2165130000         0.2105208234
d   1 1.0 
        3.1070000000        20.7284714039
d   1 1.0 
        0.8550000000         2.1672588463
f   1 1.0 
        1.9170000000        24.6547062912

  3 0
s   6 1.0 
    35479.1004410000         1.9229128581
     5318.4728983000         2.2734773358
     1210.4810975000         3.4747482552
      342.8551814000         5.2879612972
      112.0194318100         7.1666332516
       40.7147402500         7.7556346254
s   1 1.0 
       16.0396781100         5.7122450312
s   1 1.0 
        6.5038186700         2.9025947842
s   1 1.0 
        1.5440477500         0.9872011154
s   1 1.0 
        0.6122345300        -0.4932856223
s   1 1.0 
        0.2402798000         0.2445952611
p   4 1.0 
       80.2339004800         4.2755032106
       18.5940107400         4.7314752302
        5.6867902700         4.0864798013
        1.9511006300         2.2989954518
p   1 1.0 
        0.6697021100         0.8635593126
p   1 1.0 
        0.2165130000         0.2105208234
d   1 1.0 
        3.1070000000        20.7284714039
d   1 1.0 
        0.8550000000         2.1672588463
f   1 1.0 
        1.9170000000        24.6547062912

  4 0
s   6 1.0 
    35479.1004410000         1.9229128581
     5318.4728983000         2.2734773358
     1210.4810975000         3.4747482552
      342.8551814000         5.2879612972
      112.0194318100         7.1666332516
       40.7147402500         7.7556346254
s   1 1.0 
       16.0396781100         5.7122450312
s   1 1.0 
        6.5038186700         2.9025947842
s   1 1.0 
        1.5440477500         0.9872011154
s   1 1.0 
        0.6122345300        -0.4932856223
s   1 1.0 
        0.2402798000         0.2445952611
p   4 1.0 
       80.2339004800         4.2755032106
       18.5940107400         4.7314752302
        5.6867902700         4.0864798013
        1.9511006300         2.2989954518
p   1 1.0 
        0.6697021100         0.8635593126
p   1 1.0 
        0.2165130000         0.2105208234
d   1 1.0 
        3.1070000000        20.7284714039
d   1 1.0 
        0.8550000000         2.1672588463
f   1 1.0 
        1.9170000000        24.6547062912

[5D]
[9G]
[MO]
 Sym=     1a
 Ene= -4.72610358285179E+03
 Spin= Alpha
 Occup= 1.000000
  1      -0.094758809979
  2      -0.069941019979
  3      -0.117991625503
  4      -0.182508628599
  5      -0.265284255912
  6      -0.295462085405
  7      -0.183765244494
  8      -0.029690523303
  9      -0.000972784805
 10       0.000705403801
 11      -0.000509911871
 12       0.000371126006
 13      -0.000261836978
 14       0.000176539952
 15      -0.000117389375
 16       0.000077969786
 17      -0.000051054942
 18       0.000031249157
 19      -0.000016013667
 20       0.000007170681
 21      -0.000001940896
 22      -0.000000055573
 23      -0.000000077848
 24       0.000000134621
 25       0.000000011404
 26       0.000000015595
 27      -0.000000027543
 28      -0.000000000047
 29      -0.000000000300
 30       0.000000000145
 31       0.000000001371
 32       0.000000002105
 33      -0.000000003323
 34      -0.000000000526
 35      -0.000000001148
 36       0.000000001293
 37      -0.000000002737
 38      -0.000000003081
 39       0.000000006590
 40       0.000000004270
 41       0.000000004712
 42      -0.000000010279
 43      -0.000000009830
 44      -0.000000011592
 45       0.000000023698
 46       0.000000022130
 47       0.000000027205
 48      -0.000000053396
 49      -0.000000049301
 50      -0.000000062617
 51       0.000000119009
 52       0.000000120200
 53       0.000000157757
 54      -0.000000290115
 55      -0.000000242019
 56      -0.000000320123
 57       0.000000583768
 58       0.000000070811
 59       0.000000098323
 60      -0.000000171453
 61      -0.000000005488
 62       0.000000005088
 63       0.000000007146
 64       0.000000000883
 65      -0.000000003116
 66      -0.000000001540
 67       0.000000001423
 68       0.000000001967
 69       0.000000000227
 70      -0.000000000852
 71       0.000000002756
 72      -0.000000002546
 73      -0.000000003482
 74      -0.000000000388
 75       0.000000001508
 76      -0.000000007719
 77       0.000000007175
 78       0.000000009872
 79       0.000000001163
 80      -0.000000004245
 81       0.000000014500
 82      -0.000000013507
 83      -0.000000018557
 84      -0.000000002201
 85       0.000000007948
 86      -0.000000024168
 87       0.000000022573
 88       0.000000030836
 89       0.000000003647
 90      -0.000000013107
 91       0.000000034760
 92      -0.000000032713
 93      -0.000000044016
 94      -0.000000005179
 95       0.000000018304
 96      -0.000000018557
 97       0.000000018287
 98       0.000000022366
 99       0.000000002535
100      -0.000000007989
101      -0.000000151350
102       0.000000135347
103       0.000000201006
104       0.000000024243
105      -0.000000094241
106       0.000000051512
107      -0.000000047096
108      -0.000000067044
109      -0.000000008017
110       0.000000030124
111       0.000000001624
112      -0.000000001313
113      -0.000000001681
114      -0.000000002061
115       0.000000005839
116       0.000000003944
117      -0.000000001035
118      -0.000000005243
119       0.000000004043
120       0.000000005140
121       0.000000006668
122      -0.000000018862
123      -0.000000013010
124       0.000000003421
125       0.000000010137
126      -0.000000007797
127      -0.000000009889
128      -0.000000012909
129       0.000000036498
130       0.000000025244
131      -0.000000006649
132      -0.000000018237
133       0.000000014081
134       0.000000017819
135       0.000000023269
136      -0.000000065742
137      -0.000000045505
138       0.000000012010
139       0.000000031889
140      -0.000000024885
141      -0.000000031369
142      -0.000000040862
143       0.000000115266
144       0.000000079800
145      -0.000000021151
146      -0.000000042311
147       0.000000034553
148       0.000000043344
149       0.000000054549
150      -0.000000153599
151      -0.000000105262
152       0.000000028093
153      -0.000000048760
154       0.000000023400
155       0.000000031541
156       0.000000059330
157      -0.000000170216
158      -0.000000128428
159       0.000000032126
160       0.000000012275
161      -0.000000053155
162       0.000000089499
163      -0.000000111898
164      -0.000000023752
165      -0.000000351223
166      -0.000000018138
167      -0.000000025898
168      -0.000000006698
169      -0.000000077610
170      -0.000000111587
171      -0.000000036656
172      -0.000000144477
173      -0.000000204545
174      -0.000000013960
175       0.000000027778
176      -0.000000016995
177      -0.000000024568
178       0.000000019224
179      -0.000000052204
180      -0.000000042207
181       0.000000029516
182       0.000000042858
183      -0.000000030071
184       0.000000081493
185      -0.000000034436
186      -0.000000028386
187      -0.000000040583
188      -0.000000016531
189       0.000000044952
190       0.000000078859
191      -0.000000020820
192       0.000000012633
193      -0.000000054776
194       0.000000092509
195      -0.000000119482
196      -0.000000036211
197      -0.000000378342
198      -0.000000019144
199       0.000000019767
200       0.000000019460
201      -0.000000077169
202       0.000000085879
203       0.000000074548
204      -0.000000150522
205       0.000000121978
206       0.000000172814
207       0.000000003946
208       0.000000036891
209      -0.000000041377
210       0.000000004266
211       0.000000042451
212      -0.000000009665
213      -0.000000057269
214       0.000000067315
215      -0.000000009383
216      -0.000000070409
217       0.000000045037
218       0.000000022590
219      -0.000000025070
220       0.000000004722
221       0.000000084827
222       0.000000039090
223       0.000000031881
224       0.000000012387
225      -0.000000053662
226       0.000000090439
227      -0.000000114247
228      -0.000000027438
229      -0.000000358826
230       0.000000024008
231      -0.000000011093
232       0.000000019390
233       0.000000107188
234      -0.000000044868
235       0.000000077374
236       0.000000157359
237      -0.000000097883
238       0.000000172791
239       0.000000002421
240      -0.000000051284
241       0.000000021222
242      -0.000000028996
243       0.000000029690
244      -0.000000007174
245       0.000000081379
246      -0.000000031441
247       0.000000049370
248      -0.000000047264
249       0.000000043260
250      -0.000000034188
251       0.000000014419
252      -0.000000056113
253       0.000000062864
254       0.000000015559
255      -0.000000045876
 Sym=     1a
 Ene= -9.06696126562102E+02
 Spin= Alpha
 Occup= 1.000000
  1      -0.040911772330
  2      -0.032678209421
  3      -0.053658689220
  4      -0.091147839291
  5      -0.141195021131
  6      -0.172262378223
  7      -0.051012293641
  8       0.392356405393
  9       0.594522304468
 10       0.150878061566
 11      -0.001461494366
 12       0.000902440516
 13      -0.000352568338
 14       0.000100699932
 15      -0.000015569132
 16       0.000000527865
 17       0.000001995135
 18      -0.000002332543
 19       0.000001377298
 20      -0.000000648728
 21       0.000000180348
 22       0.000000091143
 23       0.000000140045
 24      -0.000000223327
 25       0.000000252610
 26       0.000000373133
 27      -0.000000615879
 28       0.000000263065
 29       0.000000402664
 30      -0.000000644249
 31       0.000000642045
 32       0.000000923140
 33      -0.000001560251
 34       0.000000213679
 35       0.000000301887
 36      -0.000000518149
 37      -0.000000073056
 38      -0.000000101571
 39       0.000000176819
 40       0.000000018335
 41       0.000000025560
 42      -0.000000044387
 43      -0.000000009273
 44      -0.000000013101
 45       0.000000022475
 46       0.000000023367
 47       0.000000032677
 48      -0.000000056571
 49      -0.000000017929
 50      -0.000000025158
 51       0.000000043404
 52       0.000000000213
 53       0.000000000810
 54      -0.000000000578
 55       0.000000017988
 56       0.000000023369
 57      -0.000000043278
 58      -0.000000006908
 59      -0.000000009533
 60       0.000000016705
 61       0.000000026098
 62      -0.000000022935
 63      -0.000000034865
 64      -0.000000004047
 65       0.000000016306
 66      -0.000000061807
 67       0.000000057246
 68       0.000000081028
 69       0.000000010149
 70      -0.000000035314
 71       0.000000011074
 72      -0.000000009725
 73      -0.000000014355
 74      -0.000000001522
 75       0.000000006786
 76      -0.000000013119
 77       0.000000011935
 78       0.000000017183
 79       0.000000002057
 80      -0.000000007706
 81       0.000000005482
 82      -0.000000005067
 83      -0.000000007346
 84      -0.000000000968
 85       0.000000003214
 86       0.000000011333
 87      -0.000000010534
 88      -0.000000014610
 89      -0.000000001766
 90       0.000000006330
 91      -0.000000009413
 92       0.000000008728
 93       0.000000012087
 94       0.000000001435
 95      -0.000000005249
 96       0.000000013937
 97      -0.000000012878
 98      -0.000000017981
 99      -0.000000002146
100       0.000000007865
101       0.000000007681
102      -0.000000006653
103      -0.000000010412
104      -0.000000001240
105       0.000000005137
106      -0.000000004132
107       0.000000003767
108       0.000000005405
109       0.000000000650
110      -0.000000002438
111       0.000000026429
112      -0.000000010381
113      -0.000000011662
114      -0.000000033990
115       0.000000095045
116       0.000000078653
117      -0.000000020980
118      -0.000000035197
119       0.000000021692
120       0.000000026924
121       0.000000044843
122      -0.000000126386
123      -0.000000093948
124       0.000000024784
125       0.000000028234
126      -0.000000018754
127      -0.000000023564
128      -0.000000035890
129       0.000000101334
130       0.000000073477
131      -0.000000019327
132      -0.000000007690
133       0.000000004384
134       0.000000005385
135       0.000000009801
136      -0.000000027593
137      -0.000000020955
138       0.000000005534
139      -0.000000005662
140       0.000000004836
141       0.000000006256
142       0.000000007156
143      -0.000000020329
144      -0.000000013343
145       0.000000003476
146       0.000000010351
147      -0.000000008029
148      -0.000000010283
149      -0.000000013082
150       0.000000037114
151       0.000000025400
152      -0.000000006634
153       0.000000001046
154       0.000000000326
155       0.000000000255
156      -0.000000001097
157       0.000000003322
158       0.000000003145
159      -0.000000000683
160      -0.000000000345
161      -0.000000001397
162       0.000000001846
163      -0.000000013756
164      -0.000000025012
165       0.000000029720
166      -0.000000001720
167      -0.000000002475
168      -0.000000000720
169       0.000000022251
170       0.000000031891
171       0.000000008259
172       0.000000015260
173       0.000000021618
174       0.000000003052
175       0.000000000361
176       0.000000000393
177       0.000000000588
178       0.000000000089
179      -0.000000000274
180      -0.000000007224
181       0.000000001938
182       0.000000002714
183      -0.000000004340
184       0.000000011919
185       0.000000001101
186       0.000000000588
187       0.000000000836
188       0.000000000575
189      -0.000000001547
190      -0.000000001973
191       0.000000000520
192      -0.000000000379
193      -0.000000001265
194       0.000000001600
195      -0.000000013291
196      -0.000000024257
197       0.000000032334
198      -0.000000001709
199       0.000000001824
200       0.000000001695
201       0.000000022683
202      -0.000000023315
203      -0.000000023063
204       0.000000015927
205      -0.000000014261
206      -0.000000017499
207      -0.000000000538
208       0.000000000403
209       0.000000000019
210      -0.000000000425
211      -0.000000000267
212       0.000000001358
213      -0.000000009271
214       0.000000008495
215       0.000000000842
216      -0.000000007711
217      -0.000000001341
218      -0.000000000294
219       0.000000000472
220      -0.000000000337
221      -0.000000002301
222      -0.000000001325
223      -0.000000000780
224      -0.000000000356
225      -0.000000001354
226       0.000000001766
227      -0.000000013606
228      -0.000000024794
229       0.000000030428
230       0.000000002298
231      -0.000000001022
232       0.000000001758
233      -0.000000029109
234       0.000000013542
235      -0.000000023474
236      -0.000000017913
237       0.000000009889
238      -0.000000017477
239      -0.000000000539
240      -0.000000000147
241       0.000000000400
242       0.000000000482
243       0.000000000066
244       0.000000001675
245       0.000000011224
246      -0.000000006008
247       0.000000004054
248      -0.000000006414
249      -0.000000001279
250       0.000000000617
251      -0.000000000150
252       0.000000001668
253      -0.000000001554
254      -0.000000000684
255       0.000000001295
 Sym=     1a
 Ene= -7.50091170429024E+02
 Spin= Alpha
 Occup= 1.000000
  1      -0.000000189305
  2      -0.000000151977
  3      -0.000000252885
  4      -0.000000421592
  5      -0.000000689655
  6      -0.000000736256
  7      -0.000000315640
  8       0.000002697545
  9       0.000003985330
 10      -0.000002896255
 11      -0.000000965745
 12       0.000001886577
 13      -0.000001204020
 14      -0.000000295008
 15       0.000006254458
 16      -0.000027333691
 17       0.000069225685
 18      -0.000122318601
 19       0.000143106891
 20      -0.000047098903
 21       0.000010870469
 22      -0.059569426637
 23      -0.094077745995
 24       0.148407906930
 25      -0.098578925904
 26      -0.155685300132
 27       0.245593977291
 28      -0.145922793430
 29      -0.230455209324
 30       0.363543792251
 31      -0.075246845829
 32      -0.118837088815
 33       0.187465767478
 34      -0.002270159510
 35      -0.003585058193
 36       0.005655672007
 37      -0.001401176734
 38      -0.002213259049
 39       0.003490961572
 40       0.000963040867
 41       0.001521606600
 42      -0.002399528009
 43      -0.000593248951
 44      -0.000938078150
 45       0.001478436150
 46       0.000359025654
 47       0.000568962556
 48      -0.000895214644
 49      -0.000216705391
 50      -0.000345327610
 51       0.000541091055
 52       0.000125456239
 53       0.000202576016
 54      -0.000314267834
 55      -0.000064390355
 56      -0.000108309448
 57       0.000162912132
 58       0.000016723584
 59       0.000026623609
 60      -0.000041741573
 61      -0.000000450986
 62       0.000000446395
 63       0.000000633235
 64       0.000000106944
 65      -0.000000247796
 66      -0.000000191036
 67       0.000000153065
 68       0.000000346265
 69       0.000000064577
 70      -0.000000168655
 71      -0.000000464691
 72       0.000000496813
 73       0.000000548847
 74       0.000000079868
 75      -0.000000178404
 76       0.000000548910
 77      -0.000000610546
 78      -0.000000591071
 79      -0.000000078893
 80       0.000000166110
 81      -0.000000930877
 82       0.000001044692
 83       0.000000978882
 84       0.000000127232
 85      -0.000000263975
 86       0.000001947245
 87      -0.000002162296
 88      -0.000002098656
 89      -0.000000279140
 90       0.000000595114
 91      -0.000003937803
 92       0.000004360803
 93       0.000004262423
 94       0.000000568440
 95      -0.000001228346
 96       0.000006255699
 97      -0.000006955988
 98      -0.000006784807
 99      -0.000000925061
100       0.000001936011
101      -0.000009544980
102       0.000011424961
103       0.000009599511
104       0.000001444265
105      -0.000001842483
106       0.000001354416
107      -0.000001588932
108      -0.000001330322
109      -0.000000171545
110       0.000000277320
111      -0.000000044836
112       0.000000029698
113       0.000000024970
114       0.000000066642
115      -0.000000174750
116      -0.000000146639
117       0.000000045307
118       0.000000192147
119      -0.000000182763
120      -0.000000199262
121      -0.000000279889
122       0.000000743443
123       0.000000532801
124      -0.000000162745
125      -0.000000461987
126       0.000000476350
127       0.000000540575
128       0.000000671820
129      -0.000001787821
130      -0.000001221305
131       0.000000372317
132       0.000001003088
133      -0.000001061542
134      -0.000001219867
135      -0.000001458473
136       0.000003882706
137       0.000002607187
138      -0.000000794349
139      -0.000002248039
140       0.000002357900
141       0.000002705670
142       0.000003267397
143      -0.000008696667
144      -0.000005862029
145       0.000001785162
146       0.000004244109
147      -0.000004376769
148      -0.000004991008
149      -0.000006139295
150       0.000016365460
151       0.000011120834
152      -0.000003379595
153      -0.000004666353
154       0.000005444095
155       0.000005576261
156       0.000007283509
157      -0.000018789563
158      -0.000013258021
159       0.000004384612
160       0.000000795321
161      -0.000003736278
162       0.000007013008
163      -0.000017856408
164      -0.000029058849
165      -0.000041986971
166      -0.000002260266
167      -0.000003259186
168      -0.000001276893
169       0.000007665949
170       0.000011102860
171       0.000003474785
172      -0.000006717092
173      -0.000010208699
174      -0.000004075901
175       0.000000863554
176      -0.000000920322
177      -0.000001325538
178       0.000000692981
179      -0.000001945265
180      -0.000003658679
181       0.000003027406
182       0.000004353537
183      -0.000002721529
184       0.000007555951
185      -0.000001101217
186      -0.000000116378
187      -0.000000151953
188      -0.000000562580
189       0.000001542664
190       0.000001153451
191      -0.000000322067
192       0.000000652159
193      -0.000003064778
194       0.000005756488
195      -0.000014684080
196      -0.000023537599
197      -0.000032385528
198      -0.000001928547
199       0.000002360897
200       0.000001739829
201       0.000006676071
202      -0.000007359562
203      -0.000006482500
204      -0.000005256042
205       0.000006386251
206       0.000004668481
207       0.000000486188
208       0.000000935476
209      -0.000001317239
210       0.000000459812
211       0.000001553818
212      -0.000001243843
213      -0.000004015344
214       0.000005049397
215      -0.000001221013
216      -0.000005622808
217       0.000000921072
218      -0.000000366762
219       0.000000177256
220       0.000000590462
221       0.000001161067
222       0.000001167795
223       0.000000275534
224       0.000000774255
225      -0.000003637653
226       0.000006829165
227      -0.000017400465
228      -0.000028268712
229      -0.000040574411
230       0.000003254389
231      -0.000001229878
232       0.000002114330
233      -0.000010386089
234       0.000004484190
235      -0.000007632647
236       0.000009951872
237      -0.000003989169
238       0.000006163894
239       0.000000406796
240      -0.000001881846
241       0.000000583247
242      -0.000001442559
243       0.000001067294
244      -0.000000972771
245       0.000007259097
246      -0.000002620930
247       0.000004877530
248      -0.000004139249
249       0.000001039227
250       0.000000090686
251      -0.000000212482
252      -0.000001367779
253       0.000000725310
254       0.000000858880
255      -0.000000954774
 Sym=     1a
 Ene= -7.50091160667193E+02
 Spin= Alpha
 Occup= 1.000000
  1      -0.000000000724
  2      -0.000000000574
  3      -0.000000001016
  4      -0.000000001507
  5      -0.000000002998
  6      -0.000000001973
  7      -0.000000002925
  8       0.000000015661
  9       0.000000014727
 10      -0.000000013756
 11      -0.000000025351
 12       0.000000045924
 13      -0.000000057829
 14       0.000000069262
 15      -0.000000044705
 16      -0.000000136400
 17       0.000000565307
 18      -0.000001145435
 19       0.000001434558
 20      -0.000000437580
 21       0.000000101416
 22       0.145233732085
 23       0.061845953532
 24       0.097500315936
 25       0.240341345943
 26       0.102346332165
 27       0.161349271325
 28       0.355767711255
 29       0.151499192550
 30       0.238838902937
 31       0.183456929810
 32       0.078122822597
 33       0.123160832844
 34       0.005532474167
 35       0.002355927979
 36       0.003714164875
 37       0.003420722112
 38       0.001456684079
 39       0.002296391275
 40      -0.002356013133
 41      -0.001003300757
 42      -0.001581574297
 43       0.001460189742
 44       0.000621840998
 45       0.000980109153
 46      -0.000898650226
 47      -0.000382740204
 48      -0.000603016422
 49       0.000565451976
 50       0.000240884977
 51       0.000379170622
 52      -0.000359525198
 53      -0.000153257328
 54      -0.000240741057
 55       0.000235908288
 56       0.000100722349
 57       0.000157470010
 58      -0.000042646728
 59      -0.000018159974
 60      -0.000028594132
 61      -0.000000346927
 62      -0.000000155912
 63      -0.000000200389
 64       0.000000273763
 65      -0.000000070945
 66      -0.000000903500
 67      -0.000000746425
 68       0.000000564563
 69      -0.000000563687
 70       0.000001514143
 71       0.000000482736
 72       0.000000591604
 73      -0.000000928670
 74       0.000001035234
 75      -0.000001787297
 76      -0.000001110415
 77      -0.000001181954
 78       0.000001554899
 79      -0.000001701507
 80       0.000003205334
 81       0.000002111440
 82       0.000002207050
 83      -0.000002824393
 84       0.000003080975
 85      -0.000005889243
 86      -0.000003960910
 87      -0.000004205602
 88       0.000005503785
 89      -0.000006020728
 90       0.000011369581
 91       0.000007924189
 92       0.000008435248
 93      -0.000011051676
 94       0.000012094609
 95      -0.000022813580
 96      -0.000012465849
 97      -0.000013537678
 98       0.000018278651
 99      -0.000020065290
100       0.000037271390
101       0.000025117956
102       0.000028121309
103      -0.000040065590
104       0.000044140984
105      -0.000080012966
106      -0.000004074042
107      -0.000004047861
108       0.000004755075
109      -0.000005130816
110       0.000010282536
111      -0.000000137108
112       0.000000010007
113      -0.000000128664
114       0.000000071103
115      -0.000000065054
116       0.000000142902
117       0.000000033815
118       0.000000555533
119      -0.000000029439
120       0.000000452389
121      -0.000000272615
122       0.000000208641
123      -0.000000514050
124      -0.000000141547
125      -0.000001349659
126       0.000000057969
127      -0.000001013867
128       0.000000644041
129      -0.000000436800
130       0.000001167923
131       0.000000347706
132       0.000002959853
133      -0.000000114576
134       0.000002143208
135      -0.000001395584
136       0.000000892116