[Molden Format]
[Title]
 Molden file created by orca_2mkl for BaseName=/data01/Nikolayandreadi/heavy/opt3/PaO_3+

[Atoms] AU
Pa   1  91         -0.9990906481         1.4989043133       -22.4325987851 
O    2   8         -0.4162726522         4.2859366663       -21.0825897734 
[GTO]
  1 0
s   9 1.0 
 57631858.1725339964     15318.1146839455
 26196299.1693340018     -5565.0020035622
 11907408.7133339997      8721.7488303571
  5412458.5060609998       341.2948940372
  2460208.4118459998      4085.4543694394
  1118276.5508389999      1905.4034809116
   508307.5231090000      2611.4146297113
   231048.8741400000      1976.6043094082
   105022.2155180000      2031.4725197545
s   1 1.0 
    47737.3706900000      2301.7278018772
s   1 1.0 
    21698.8048590000      1274.1980990770
s   1 1.0 
     9863.0931180000       705.3748034003
s   1 1.0 
     4483.2241440000       390.4837195855
s   1 1.0 
     2037.8291570000       216.1652706843
s   1 1.0 
      926.2859800000       119.6654863652
s   1 1.0 
      421.0390820000        66.2448162538
s   1 1.0 
      191.3814010000        36.6720247745
s   1 1.0 
       86.9915460000        20.3010209355
s   1 1.0 
       39.5416120000        11.2383064381
s   1 1.0 
       17.9734600000         6.2213388954
s   1 1.0 
        8.1697540000         3.4440292161
s   1 1.0 
        3.7135250000         1.9065572739
s   1 1.0 
        1.6879660000         1.0554383322
s   1 1.0 
        0.7672570000         0.5842728914
s   1 1.0 
        0.3487530000         0.3234435957
s   1 1.0 
        0.1585240000         0.1790528998
s   1 1.0 
        0.0720560000         0.0991203221
s   1 1.0 
        0.0327530000         0.0548716988
s   1 1.0 
        0.0148880000         0.0303764741
p   8 1.0 
   820588.6600690000    117960.8380814268
   341911.9416950000     10293.3338078988
   142463.3090400000     34535.2725490902
    59359.7121000000     17348.6583204729
    24733.2133750000     16831.7677005322
    10305.5055730000     13674.5392108057
     4293.9606550000     12899.6246819168
     1789.1502730000     11789.0634615762
p   1 1.0 
      745.4792800000      5552.4487579542
p   1 1.0 
      310.6163670000      1858.7479720243
p   1 1.0 
      129.4234860000       622.2378919893
p   1 1.0 
       53.9264530000       208.3015048177
p   1 1.0 
       22.4693550000        69.7313936668
p   1 1.0 
        9.3622310000        23.3434089560
p   1 1.0 
        3.9009300000         7.8144836060
p   1 1.0 
        1.6253870000         2.6159899143
p   1 1.0 
        0.6772450000         0.8757342738
p   1 1.0 
        0.2821850000         0.2931618768
p   1 1.0 
        0.1175770000         0.0981393227
p   1 1.0 
        0.0489910000         0.0328537894
d   7 1.0 
    39984.8312080000     49820.8214421646
    15993.9324830000     24763.2125679906
     6397.5729930000     27687.8895786202
     2559.0291970000     25715.0680190714
     1023.6116790000     27614.8741414884
      409.4446720000     25104.2866847335
      163.7778690000     17021.7824315036
d   1 1.0 
       65.5111470000      4300.5271063730
d   1 1.0 
       26.2044590000       865.2202593661
d   1 1.0 
       10.4817840000       174.0731121316
d   1 1.0 
        4.1927130000        35.0216472939
d   1 1.0 
        1.6770850000         7.0459809407
d   1 1.0 
        0.6708340000         1.4175763168
d   1 1.0 
        0.2683340000         0.2852020000
d   1 1.0 
        0.1073330000         0.0573790433
d   1 1.0 
        0.0429330000         0.0115439582
f   6 1.0 
     4212.3892570000     53509.6197850903
     1620.1497140000     46215.8871057453
      623.1345050000     51850.9767921649
      239.6671170000     50432.9890340126
       92.1796610000     36159.3884368328
       35.4537160000     14379.0722744372
f   1 1.0 
       13.6360440000      2037.2717616429
f   1 1.0 
        5.2446320000       237.3334078456
f   1 1.0 
        2.0171660000        27.6483213038
f   1 1.0 
        0.7758330000         3.2209103577
f   1 1.0 
        0.2983970000         0.3752213982
f   1 1.0 
        0.1147680000         0.0437116207

  2 0
s   6 1.0 
    27032.3826310000         1.4645050749
     4052.3871392000         1.8244031008
      922.3272271000         2.8547160967
      261.2407098900         4.3654874290
       85.3546413500         5.8940772662
       31.0350352400         6.2963020147
s   1 1.0 
       12.2608607300         4.6698272139
s   1 1.0 
        4.9987076000         2.3826123703
s   1 1.0 
        1.1703108200         0.8019291632
s   1 1.0 
        0.4647474100        -0.4011648063
s   1 1.0 
        0.1850453600         0.2010799377
p   4 1.0 
       63.2749548000         3.0898340730
       14.6270493800         3.3923831935
        4.4501223500         2.9482801524
        1.5275799600         1.7113350234
p   1 1.0 
        0.5293511800         0.6436057935
p   1 1.0 
        0.1747842100         0.1610897223
d   1 1.0 
        2.3140000000        12.3767310624
d   1 1.0 
        0.6450000000         1.3234257612
f   1 1.0 
        1.4280000000        12.7097950062

[5D]
[7F]
[9G]
[MO]
 Sym=     1a
 Ene= -4.15065507569607E+03
 Spin= Alpha
 Occup= 2.000000
  1      -0.082736417929
  2      -0.064032704397
  3      -0.110205869692
  4      -0.176314969704
  5      -0.264167197485
  6      -0.304987770450
  7      -0.195137354663
  8      -0.032838410742
  9      -0.000846764694
 10       0.000590911736
 11      -0.000433065384
 12       0.000323247259
 13      -0.000230763565
 14       0.000155804568
 15      -0.000103990856
 16       0.000069823383
 17      -0.000046302730
 18       0.000028789743
 19      -0.000012059491
 20       0.000005790237
 21      -0.000001594703
 22       0.000000005550
 23       0.000000026539
 24       0.000000012855
 25      -0.000000030634
 26      -0.000000146492
 27      -0.000000070959
 28      -0.000000015983
 29      -0.000000076434
 30      -0.000000037025
 31      -0.000000002207
 32      -0.000000010554
 33      -0.000000005111
 34      -0.000000000100
 35      -0.000000000478
 36      -0.000000000232
 37       0.000000000666
 38       0.000000003184
 39       0.000000001543
 40       0.000000000066
 41       0.000000000317
 42       0.000000000153
 43       0.000000002965
 44       0.000000014178
 45       0.000000006868
 46      -0.000000019622
 47      -0.000000093832
 48      -0.000000045452
 49       0.000000100814
 50       0.000000482094
 51       0.000000233521
 52      -0.000000267443
 53      -0.000001278911
 54      -0.000000619491
 55       0.000000757620
 56       0.000003622934
 57       0.000001754911
 58      -0.000000085939
 59      -0.000000410958
 60      -0.000000199064
 61      -0.000000004928
 62       0.000000003010
 63       0.000000014394
 64      -0.000000014208
 65       0.000000006214
 66       0.000000008403
 67      -0.000000005133
 68      -0.000000024546
 69       0.000000024229
 70      -0.000000010597
 71       0.000000005386
 72      -0.000000003290
 73      -0.000000015731
 74       0.000000015528
 75      -0.000000006791
 76      -0.000000017242
 77       0.000000010532
 78       0.000000050362
 79      -0.000000049712
 80       0.000000021742
 81       0.000000037395
 82      -0.000000022842
 83      -0.000000109228
 84       0.000000107818
 85      -0.000000047155
 86      -0.000000069753
 87       0.000000042606
 88       0.000000203743
 89      -0.000000201112
 90       0.000000087959
 91       0.000000089809
 92      -0.000000054857
 93      -0.000000262325
 94       0.000000258938
 95      -0.000000113250
 96       0.000000011548
 97      -0.000000007054
 98      -0.000000033731
 99       0.000000033296
100      -0.000000014562
101      -0.000000421755
102       0.000000257617
103       0.000001231921
104      -0.000001216014
105       0.000000531838
106       0.000000087972
107      -0.000000053735
108      -0.000000256961
109       0.000000253643
110      -0.000000110934
111       0.000000006517
112       0.000000000136
113       0.000000000651
114       0.000000009068
115      -0.000000003966
116      -0.000000004941
117      -0.000000006943
118      -0.000000017693
119      -0.000000000370
120      -0.000000001768
121      -0.000000024617
122       0.000000010767
123       0.000000013413
124       0.000000018850
125       0.000000039047
126       0.000000000816
127       0.000000003902
128       0.000000054327
129      -0.000000023761
130      -0.000000029601
131      -0.000000041600
132      -0.000000079087
133      -0.000000001653
134      -0.000000007903
135      -0.000000110036
136       0.000000048126
137       0.000000059954
138       0.000000084258
139       0.000000140296
140       0.000000002932
141       0.000000014019
142       0.000000195199
143      -0.000000085372
144      -0.000000106356
145      -0.000000149469
146       0.000000015168
147       0.000000000317
148       0.000000001516
149       0.000000021104
150      -0.000000009230
151      -0.000000011498
152      -0.000000016160
153      -0.000000260022
154      -0.000000005433
155      -0.000000025982
156      -0.000000361777
157       0.000000158227
158       0.000000197117
159       0.000000277022
160       0.000000021276
161      -0.000000096983
162       0.000000187404
163      -0.000000882943
164      -0.000002251581
165      -0.000005563750
166       0.000000006869
167       0.000000032848
168       0.000000015911
169      -0.000000152226
170      -0.000000727941
171      -0.000000352607
172       0.000000325396
173       0.000001556043
174       0.000000753731
175      -0.000000014049
176       0.000000008581
177       0.000000041035
178      -0.000000040505
179       0.000000017715
180      -0.000000087476
181       0.000000053432
182       0.000000255511
183      -0.000000252211
184       0.000000110308
185      -0.000000019577
186      -0.000000000409
187      -0.000000001956
188      -0.000000027238
189       0.000000011913
190       0.000000014841
191       0.000000020857
 Sym=     1a
 Ene= -7.81259605313936E+02
 Spin= Alpha
 Occup= 2.000000
  1       0.034737867061
  2       0.029020473898
  3       0.048844351966
  4       0.085593617683
  5       0.138058172977
  6       0.178936552242
  7       0.077157063716
  8      -0.363381559266
  9      -0.614617368460
 10      -0.174686742102
 11       0.002211510329
 12      -0.002023461565
 13       0.001118233862
 14      -0.000599548447
 15       0.000346572502
 16      -0.000223046593
 17       0.000145457908
 18      -0.000089501225
 19       0.000037441125
 20      -0.000017924003
 21       0.000004931227
 22      -0.000001302029
 23      -0.000006226306
 24      -0.000003015960
 25      -0.000002128284
 26      -0.000010177452
 27      -0.000004929852
 28      -0.000003519461
 29      -0.000016830082
 30      -0.000008152328
 31      -0.000002963514
 32      -0.000014171494
 33      -0.000006864515
 34      -0.000000656557
 35      -0.000003139665
 36      -0.000001520826
 37       0.000000025785
 38       0.000000123311
 39       0.000000059733
 40      -0.000000036614
 41      -0.000000175085
 42      -0.000000084808
 43       0.000000013543
 44       0.000000064756
 45       0.000000031365
 46       0.000000072056
 47       0.000000344579
 48       0.000000166912
 49      -0.000000317205
 50      -0.000001516881
 51      -0.000000734761
 52       0.000000798480
 53       0.000003818333
 54       0.000001849560
 55      -0.000002322042
 56      -0.000011103993
 57      -0.000005378657
 58       0.000000262888
 59       0.000001257132
 60       0.000000608942
 61      -0.000000255191
 62       0.000000155875
 63       0.000000745399
 64      -0.000000735775
 65       0.000000321800
 66      -0.000000333349
 67       0.000000203618
 68       0.000000973691
 69      -0.000000961119
 70       0.000000420356
 71       0.000000035262
 72      -0.000000021540
 73      -0.000000102996
 74       0.000000101666
 75      -0.000000044465
 76      -0.000000002612
 77       0.000000001596
 78       0.000000007628
 79      -0.000000007530
 80       0.000000003294
 81      -0.000000075440
 82       0.000000046080
 83       0.000000220363
 84      -0.000000217514
 85       0.000000095130
 86       0.000000200122
 87      -0.000000122237
 88      -0.000000584548
 89       0.000000576994
 90      -0.000000252354
 91      -0.000000245355
 92       0.000000149866
 93       0.000000716671
 94      -0.000000707412
 95       0.000000309394
 96      -0.000000037264
 97       0.000000022762
 98       0.000000108843
 99      -0.000000107441
100       0.000000046991
101       0.000001296589
102      -0.000000791983
103      -0.000003787256
104       0.000003738356
105      -0.000001635013
106      -0.000000271311
107       0.000000165722
108       0.000000792482
109      -0.000000782250
110       0.000000342126
111       0.000000181633
112       0.000000003795
113       0.000000018149
114       0.000000252711
115      -0.000000110526
116      -0.000000137692
117      -0.000000193508
118      -0.000000031756
119      -0.000000000663
120      -0.000000003173
121      -0.000000044183
122       0.000000019324
123       0.000000024073
124       0.000000033832
125      -0.000000078225
126      -0.000000001635
127      -0.000000007817
128      -0.000000108838
129       0.000000047601
130       0.000000059301
131       0.000000083340
132       0.000000205880
133       0.000000004302
134       0.000000020572
135       0.000000286447
136      -0.000000125281
137      -0.000000156073
138      -0.000000219340
139      -0.000000391207
140      -0.000000008174
141      -0.000000039090
142      -0.000000544299
143       0.000000238055
144       0.000000296566
145       0.000000416784
146      -0.000000055822
147      -0.000000001167
148      -0.000000005578
149      -0.000000077667
150       0.000000033968
151       0.000000042318
152       0.000000059472
153       0.000000799710
154       0.000000016710
155       0.000000079909
156       0.000001112661
157      -0.000000486635
158      -0.000000606244
159      -0.000000851994
160      -0.000000058506
161       0.000000277588
162      -0.000000540127
163       0.000002611680
164       0.000006817449
165       0.000017117291
166      -0.000000015817
167      -0.000000075639
168      -0.000000036639
169       0.000000452321
170       0.000002162996
171       0.000001047733
172      -0.000001005347
173      -0.000004807561
174      -0.000002328733
175       0.000000045744
176      -0.000000027941
177      -0.000000133613
178       0.000000131888
179      -0.000000057683
180       0.000000250709
181      -0.000000153138
182      -0.000000732307
183       0.000000722852
184      -0.000000316148
185       0.000000082130
186       0.000000001717
187       0.000000008206
188       0.000000114268
189      -0.000000049977
190      -0.000000062259
191      -0.000000087498
 Sym=     1a
 Ene= -6.57946984130564E+02
 Spin= Alpha
 Occup= 2.000000
  1       0.000000000001
  2       0.000000000001
  3       0.000000000001
  4       0.000000000002
  5       0.000000000005
  6       0.000000000002
  7       0.000000000004
  8      -0.000000000011
  9      -0.000000000022
 10       0.000000000011
 11      -0.000000000012
 12       0.000000000001
 13       0.000000000003
 14      -0.000000000005
 15       0.000000000009
 16      -0.000000000026
 17       0.000000000050
 18      -0.000000000049
 19       0.000000000050
 20      -0.000000000015
 21       0.000000000004
 22       0.021634297163
 23      -0.079951642394
 24       0.155716828755
 25       0.037082418857
 26      -0.137041673656
 27       0.266907522971
 28       0.056122590903
 29      -0.207406475212
 30       0.403952659587
 31       0.029662099355
 32      -0.109619163592
 33       0.213498409961
 34       0.001020587258
 35      -0.003771679151
 36       0.007345864323
 37       0.000537297780
 38      -0.001985636038
 39       0.003867299488
 40      -0.000372471963
 41       0.001376506255
 42      -0.002680935403
 43       0.000228785702
 44      -0.000845499745
 45       0.001646727146
 46      -0.000137628909
 47       0.000508620963
 48      -0.000990609370
 49       0.000081922207
 50      -0.000302751433
 51       0.000589650136
 52      -0.000046269909
 53       0.000170994928
 54      -0.000333036182
 55       0.000022925906
 56      -0.000084724897
 57       0.000165013426
 58      -0.000006711689
 59       0.000024803710
 60      -0.000048308625
 61       0.000005167771
 62       0.000001702598
 63       0.000004627625
 64       0.000003341526
 65       0.000000194415
 66       0.000002102156
 67       0.000000692585
 68       0.000001882431
 69       0.000001359275
 70       0.000000079097
 71       0.000000115411
 72       0.000000038024
 73       0.000000103352
 74       0.000000074622
 75       0.000000004334
 76      -0.000000148986
 77      -0.000000049086
 78      -0.000000133417
 79      -0.000000096333
 80      -0.000000005601
 81       0.000000416354
 82       0.000000137176
 83       0.000000372839
 84       0.000000269214
 85       0.000000015664
 86      -0.000001019390
 87      -0.000000335856
 88      -0.000000912845
 89      -0.000000659136
 90      -0.000000038354
 91       0.000002166365
 92       0.000000713743
 93       0.000001939943
 94       0.000001400776
 95       0.000000081506
 96      -0.000004535342
 97      -0.000001494234
 98      -0.000004061307
 99      -0.000002932581
100      -0.000000170628
101       0.000006967936
102       0.000002295684
103       0.000006239641
104       0.000004505518
105       0.000000262144
106      -0.000000216820
107      -0.000000071434
108      -0.000000194158
109      -0.000000140197
110      -0.000000008156
111       0.000000041304
112      -0.000000160021
113      -0.000000785081
114       0.000000218318
115      -0.000000227495
116       0.000000050831
117       0.000000340876
118      -0.000000020827
119       0.000000080695
120       0.000000395896
121      -0.000000110091
122       0.000000114718
123      -0.000000025634
124      -0.000000171894
125      -0.000000000241
126       0.000000000928
127       0.000000004551
128      -0.000000001267
129       0.000000001321
130      -0.000000000292
131      -0.000000001977
132       0.000000030436
133      -0.000000117912
134      -0.000000578487
135       0.000000160871
136      -0.000000167632
137       0.000000037453
138       0.000000251175
139      -0.000000092328
140       0.000000357684
141       0.000001754836
142      -0.000000487999
143       0.000000508506
144      -0.000000113617
145      -0.000000761935
146       0.000000289582
147      -0.000001121900
148      -0.000005504161
149       0.000001530624
150      -0.000001594952
151       0.000000356377
152       0.000002389869
153      -0.000000363161
154       0.000001406969
155       0.000006902741
156      -0.000001919545
157       0.000002000219
158      -0.000000446934
159      -0.000002997126
160       0.000000000001
161      -0.000000000001
162      -0.000000000000
163       0.000000000001
164      -0.000000000024
165      -0.000000000047
166      -0.000000203142
167       0.000000750725
168      -0.000001462147
169       0.000001297430
170      -0.000004794784
171       0.000009338493
172      -0.000002066805
173       0.000007638097
174      -0.000014876226
175       0.000000096975
176       0.000000031950
177       0.000000086841
178       0.000000062704
179       0.000000003649
180      -0.000003495995
181      -0.000001151806
182      -0.000003130594
183      -0.000002260536
184      -0.000000131527
185       0.000000081870
186      -0.000000317211
187      -0.000001556264
188       0.000000432766
189      -0.000000450959
190       0.000000100767
191       0.000000675725
 Sym=     1a
 Ene= -6.57946984127514E+02
 Spin= Alpha
 Occup= 2.000000
  1       0.000000000001
  2       0.000000000001
  3       0.000000000001
  4       0.000000000002
  5       0.000000000004
  6       0.000000000005
  7       0.000000000002
  8      -0.000000000009
  9      -0.000000000023
 10       0.000000000010
 11      -0.000000000011
 12       0.000000000001
 13       0.000000000003
 14      -0.000000000004
 15       0.000000000008
 16      -0.000000000026
 17       0.000000000050
 18      -0.000000000050
 19       0.000000000050
 20      -0.000000000016
 21       0.000000000004
 22      -0.171976304959
 23       0.019531982465
 24       0.033921834948
 25      -0.294777192251
 26       0.033478931597
 27       0.058143959219
 28      -0.446132163938
 29       0.050668873282
 30       0.087998295076
 31      -0.235791262599
 32       0.026779682276
 33       0.046509153077
 34      -0.008112897063
 35       0.000921411611
 36       0.001600245772
 37      -0.004271111108
 38       0.000485085815
 39       0.000842464465
 40       0.002960870505
 41      -0.000336276969
 42      -0.000584023249
 43      -0.001818673374
 44       0.000206553439
 45       0.000358728129
 46       0.001094045776
 47      -0.000124254824
 48      -0.000215797409
 49      -0.000651219596
 50       0.000073961429
 51       0.000128451213
 52       0.000367810802
 53      -0.000041773638
 54      -0.000072549633
 55      -0.000182243621
 56       0.000020698090
 57       0.000035947037
 58       0.000053352870
 59      -0.000006059476
 60      -0.000010523698
 61       0.000001125764
 62      -0.000003014563
 63       0.000001716057
 64      -0.000002195174
 65      -0.000006641133
 66       0.000000457931
 67      -0.000001226267
 68       0.000000698054
 69      -0.000000892961
 70      -0.000002701495
 71       0.000000025148
 72      -0.000000067324
 73       0.000000038331
 74      -0.000000049023
 75      -0.000000148314
 76      -0.000000032458
 77       0.000000086910
 78      -0.000000049478
 79       0.000000063288
 80       0.000000191463
 81       0.000000090698
 82      -0.000000242877
 83       0.000000138260
 84      -0.000000176866
 85      -0.000000535059
 86      -0.000000222065
 87       0.000000594647
 88      -0.000000338510
 89       0.000000433029
 90       0.000001310020
 91       0.000000471925
 92      -0.000001263721
 93       0.000000719391
 94      -0.000000920248
 95      -0.000002784005
 96      -0.000000987990
 97       0.000002645637
 98      -0.000001506054
 99       0.000001926541
100       0.000005828393
101       0.000001517912
102      -0.000004064664
103       0.000002313843
104      -0.000002959861
105      -0.000008954536
106      -0.000000047233
107       0.000000126480
108      -0.000000071999
109       0.000000092102
110       0.000000278638
111       0.000000008998
112      -0.000000053993
113      -0.000000167024
114       0.000000280596
115       0.000000483266
116       0.000000623070
117      -0.000000361214
118      -0.000000004536
119       0.000000027227
120       0.000000084226
121      -0.000000141496
122      -0.000000243700
123      -0.000000314200
124       0.000000182153
125      -0.000000000054
126       0.000000000313
127       0.000000000969
128      -0.000000001628
129      -0.000000002798
130      -0.000000003608
131       0.000000002092
132       0.000000006632
133      -0.000000039785
134      -0.000000123072
135       0.000000206761
136       0.000000356091
137       0.000000459106
138      -0.000000266161
139      -0.000000020117
140       0.000000120686
141       0.000000373336
142      -0.000000627204
143      -0.000001080207
144      -0.000001392699
145       0.000000807400
146       0.000000063088
147      -0.000000378539
148      -0.000001170991
149       0.000001967249
150       0.000003388146
151       0.000004368301
152      -0.000002532451
153      -0.000000079115
154       0.000000474724
155       0.000001468534
156      -0.000002467113
157      -0.000004249061
158      -0.000005478268
159       0.000003175932
160       0.000000000001
161      -0.000000000000
162      -0.000000000001
163       0.000000000001
164      -0.000000000023
165      -0.000000000045
166       0.000001614818
167      -0.000000183404
168      -0.000000318520
169      -0.000010313593
170       0.000001171349
171       0.000002034324
172       0.000016429564
173      -0.000001865959
174      -0.000003240679
175       0.000000021125
176      -0.000000056570
177       0.000000032205
178      -0.000000041195
179      -0.000000124624
180      -0.000000761576
181       0.000002039347
182      -0.000001160919
183       0.000001485040
184       0.000004492723
185       0.000000017831
186      -0.000000107030
187      -0.000000331091
188       0.000000556219
189       0.000000957979
190       0.000001235112
191      -0.000000716027
 Sym=     1a
 Ene= -6.57945831084090E+02
 Spin= Alpha
 Occup= 2.000000
  1      -0.000001753815
  2      -0.000001470420
  3      -0.000002463275
  4      -0.000004360955
  5      -0.000006970226
  6      -0.000009277801
  7      -0.000003423566
  8       0.000020071670
  9       0.000034770937
 10       0.000001035647
 11      -0.000003910047
 12       0.000001315785
 13      -0.000003918121
 14       0.000011980741
 15      -0.000037851515
 16       0.000106232628
 17      -0.000190933425
 18       0.000192767080
 19      -0.000142593802
 20       0.000041366529
 21      -0.000009723009
 22      -0.032621282869
 23      -0.155994595265
 24      -0.075562067779
 25      -0.055914793938
 26      -0.267383894270
 27      -0.129517820200
 28      -0.084624475020
 29      -0.404673255288
 30      -0.196019278056
 31      -0.044726380586
 32      -0.213881031749
 33      -0.103601621517
 34      -0.001537058476
 35      -0.007350195745
 36      -0.003560354048
 37      -0.000812983785
 38      -0.003887679019
 39      -0.001883149002
 40       0.000566400100
 41       0.002708518718
 42       0.001311976713
 43      -0.000352919766
 44      -0.001687658265
 45      -0.000817483134
 46       0.000220188915
 47       0.001052940908
 48       0.000510033031
 49      -0.000139364138
 50      -0.000666437783
 51      -0.000322815170
 52       0.000078427314
 53       0.000375038554
 54       0.000181664572
 55      -0.000037443118
 56      -0.000179052570
 57      -0.000086731103
 58       0.000006552841
 59       0.000031335590
 60       0.000015178608
 61       0.000002294777
 62      -0.000001401695
 63      -0.000006702896
 64       0.000006616349
 65      -0.000002893738
 66       0.000000553037
 67      -0.000000337806
 68      -0.000001615383
 69       0.000001594526
 70      -0.000000697385
 71       0.000001187204
 72      -0.000000725168
 73      -0.000003467750
 74       0.000003422974
 75      -0.000001497077
 76      -0.000002214374
 77       0.000001352584
 78       0.000006468052
 79      -0.000006384535
 80       0.000002792350
 81       0.000004324916
 82      -0.000002641746
 83      -0.000012632815
 84       0.000012469697
 85      -0.000005453765
 86      -0.000008591772
 87       0.000005248028
 88       0.000025096040
 89      -0.000024771994
 90       0.000010834316
 91       0.000015412940
 92      -0.000009414535
 93      -0.000045020251
 94       0.000044438940
 95      -0.000019435881
 96      -0.000015132956
 97       0.000009243515
 98       0.000044202433
 99      -0.000043631683
100       0.000019082819
101       0.000010172262
102      -0.000006213422
103      -0.000029712544
104       0.000029328892
105      -0.000012827330
106      -0.000000024949
107       0.000000015239
108       0.000000072874
109      -0.000000071933
110       0.000000031461
111      -0.000000132021
112      -0.000000002759
113      -0.000000013192
114      -0.000000183685
115       0.000000080337
116       0.000000100082
117       0.000000140652
118      -0.000001084651
119      -0.000000022664
120      -0.000000108381
121      -0.000001509108
122       0.000000660025
123       0.000000822251
124       0.000001155564
125       0.000003188815
126       0.000000066632
127       0.000000318633
128       0.000004436696
129      -0.000001940440
130      -0.000002417375
131      -0.000003397297
132      -0.000007423467
133      -0.000000155117
134      -0.000000741769
135      -0.000010328496
136       0.000004517286
137       0.000005627576
138       0.000007908804
139       0.000016555493
140       0.000000345935
141       0.000001654261
142       0.000023034163
143      -0.000010074256
144      -0.000012550377
145      -0.000017637872
146      -0.000020569839
147      -0.000000429817
148      -0.000002055384
149      -0.000028619444
150       0.000012517043
151       0.000015593570
152       0.000021914671
153       0.000012741857
154       0.000000266248
155       0.000001273196
156       0.000017728134
157      -0.000007753604
158      -0.000009659340
159      -0.000013574905
160       0.000000163607
161      -0.000001370058
162       0.000004418965
163      -0.000013130419
164       0.000059662686
165       0.000097220654
166       0.000002507644
167       0.000011991536
168       0.000005808573
169       0.000000499987
170       0.000002390945
171       0.000001158152
172       0.000000771764
173       0.000003690550
174       0.000001787657
175       0.000002031857
176      -0.000001241100
177      -0.000005934931
178       0.000005858298
179      -0.000002562194
180      -0.000008674637
181       0.000005298643
182       0.000025338080
183      -0.000025010910
184       0.000010938810
185       0.000014071651
186       0.000000294034
187       0.000001406069
188       0.000019578318
189      -0.000008562802
190      -0.000010667426
191      -0.000014991639
 Sym=     1a
 Ene= -2.00504048318334E+02
 Spin= Alpha
 Occup= 2.000000
  1      -0.016990281243
  2      -0.014406459895
  3      -0.024027034403
  4      -0.043248515048
  5      -0.069604752297
  6      -0.094971368588
  7      -0.029608300642
  8       0.288728191556
  9       0.693975260813
 10      -0.181188344717
 11      -0.992357778252
 12      -0.147505480342
 13      -0.018649013465
 14       0.014357074116
 15      -0.010299143556
 16       0.007238095211
 17      -0.004904114715
 18       0.003072716757
 19      -0.001293370646
 20       0.000622641402
 21      -0.000171659668
 22       0.000010780983
 23       0.000051554598
 24       0.000024972501