[Molden Format]
[Title]
 Molden file created by orca_2mkl for BaseName=/data01/Nikolayandreadi/heavy/CO3/CO3

[Atoms] AU
O    1   8          2.0630858300        -1.2211202408        -0.0419179051 
C    2   6          0.7431442508         0.4610591616        -1.2810094414 
O    3   8          1.7148149727         2.6807144710        -1.7673210133 
O    4   8         -1.5489820558        -0.0760690358        -2.0326593495 
[GTO]
  1 0
s   6 1.0 
    27032.3826310000         1.4645050749
     4052.3871392000         1.8244031008
      922.3272271000         2.8547160967
      261.2407098900         4.3654874290
       85.3546413500         5.8940772662
       31.0350352400         6.2963020147
s   1 1.0 
       12.2608607300         4.6698272139
s   1 1.0 
        4.9987076000         2.3826123703
s   1 1.0 
        1.1703108200         0.8019291632
s   1 1.0 
        0.4647474100        -0.4011648063
s   1 1.0 
        0.1850453600         0.2010799377
p   4 1.0 
       63.2749548000         3.0898340730
       14.6270493800         3.3923831935
        4.4501223500         2.9482801524
        1.5275799600         1.7113350234
p   1 1.0 
        0.5293511800         0.6436057935
p   1 1.0 
        0.1747842100         0.1610897223
d   1 1.0 
        2.3140000000        12.3767310624
d   1 1.0 
        0.6450000000         1.3234257612
f   1 1.0 
        1.4280000000        12.7097950062
s   1 1.0 
        0.0616817867         0.0882120269
p   1 1.0 
        0.0582614033         0.0408005732

  2 0
s   6 1.0 
    13575.3496820000         0.7684632837
     2035.2333680000         1.0861436461
      463.2256235900         1.7703924000
      131.2001959800         2.7178496271
       42.8530158900         3.6101953426
       15.5841857700         3.6946140086
s   1 1.0 
        6.2067138500         2.8025694579
s   1 1.0 
        2.5764896500         1.4493770955
s   1 1.0 
        0.5769633900         0.4718145012
s   1 1.0 
        0.2297283100        -0.2364944648
s   1 1.0 
        0.0951644400         0.1221141848
p   4 1.0 
       34.6972322400         1.3669717438
        7.9582622800         1.4530900682
        2.3780826900         1.2707683638
        0.8143320800         0.8025478511
p   1 1.0 
        0.2888754700         0.3018758836
p   1 1.0 
        0.1005682400         0.0807265050
d   1 1.0 
        1.0970000000         3.3522135855
d   1 1.0 
        0.3180000000         0.3838994974
f   1 1.0 
        0.7610000000         3.0840084332
s   1 1.0 
        0.0317214800         0.0535704351
p   1 1.0 
        0.0335227467         0.0204462931

  3 0
s   6 1.0 
    27032.3826310000         1.4645050749
     4052.3871392000         1.8244031008
      922.3272271000         2.8547160967
      261.2407098900         4.3654874290
       85.3546413500         5.8940772662
       31.0350352400         6.2963020147
s   1 1.0 
       12.2608607300         4.6698272139
s   1 1.0 
        4.9987076000         2.3826123703
s   1 1.0 
        1.1703108200         0.8019291632
s   1 1.0 
        0.4647474100        -0.4011648063
s   1 1.0 
        0.1850453600         0.2010799377
p   4 1.0 
       63.2749548000         3.0898340730
       14.6270493800         3.3923831935
        4.4501223500         2.9482801524
        1.5275799600         1.7113350234
p   1 1.0 
        0.5293511800         0.6436057935
p   1 1.0 
        0.1747842100         0.1610897223
d   1 1.0 
        2.3140000000        12.3767310624
d   1 1.0 
        0.6450000000         1.3234257612
f   1 1.0 
        1.4280000000        12.7097950062
s   1 1.0 
        0.0616817867         0.0882120269
p   1 1.0 
        0.0582614033         0.0408005732

  4 0
s   6 1.0 
    27032.3826310000         1.4645050749
     4052.3871392000         1.8244031008
      922.3272271000         2.8547160967
      261.2407098900         4.3654874290
       85.3546413500         5.8940772662
       31.0350352400         6.2963020147
s   1 1.0 
       12.2608607300         4.6698272139
s   1 1.0 
        4.9987076000         2.3826123703
s   1 1.0 
        1.1703108200         0.8019291632
s   1 1.0 
        0.4647474100        -0.4011648063
s   1 1.0 
        0.1850453600         0.2010799377
p   4 1.0 
       63.2749548000         3.0898340730
       14.6270493800         3.3923831935
        4.4501223500         2.9482801524
        1.5275799600         1.7113350234
p   1 1.0 
        0.5293511800         0.6436057935
p   1 1.0 
        0.1747842100         0.1610897223
d   1 1.0 
        2.3140000000        12.3767310624
d   1 1.0 
        0.6450000000         1.3234257612
f   1 1.0 
        1.4280000000        12.7097950062
s   1 1.0 
        0.0616817867         0.0882120269
p   1 1.0 
        0.0582614033         0.0408005732

[5D]
[7F]
[9G]
[MO]
 Sym=     1a
 Ene= -2.00768297686415E+01
 Spin= Alpha
 Occup= 2.000000
  1       0.162421739028
  2       0.153360642335
  3       0.093422812626
  4       0.009215007810
  5       0.005583843613
  6       0.002258058137
  7      -0.000337550771
  8       0.000410076859
  9      -0.000308842005
 10       0.000716843120
 11      -0.000939417020
 12       0.000683528615
 13      -0.000587691312
 14      -0.000253996850
 15      -0.000145939739
 16       0.000000114892
 17       0.000011461452
 18      -0.000023468613
 19      -0.000014101135
 20      -0.000028386432
 21      -0.000025039024
 22      -0.000096533952
 23       0.000185063990
 24       0.000102235949
 25       0.000270043186
 26       0.000000273012
 27       0.000002589969
 28      -0.000009659849
 29       0.000014215288
 30      -0.000023709934
 31       0.000016997719
 32       0.000027659922
 33       0.000492208830
 34      -0.000158726739
 35       0.000167724142
 36      -0.000135090460
 37       0.000001777282
 38      -0.000005968516
 39       0.000029873942
 40      -0.000022334803
 41       0.000310848909
 42       0.000150590726
 43      -0.000141721789
 44      -0.000326982738
 45       0.000072303151
 46      -0.001807763677
 47      -0.004170838206
 48       0.000922305556
 49       0.001313516410
 50       0.003030502430
 51      -0.000670143686
 52       0.000065703088
 53       0.000143265756
 54       0.000028822458
 55       0.000214133850
 56      -0.000198269250
 57       0.000428691237
 58       0.001159903631
 59       0.000158768251
 60       0.001635067880
 61      -0.001489190653
 62      -0.000095298487
 63       0.000121212364
 64       0.000133007660
 65      -0.000179130845
 66      -0.000063532782
 67      -0.000065374814
 68       0.000024490778
 69      -0.000072004954
 70      -0.000117675252
 71      -0.000271500683
 72       0.000060035466
 73      -0.371961584351
 74      -0.351211067510
 75      -0.213948472901
 76      -0.021060752647
 77      -0.012449340917
 78      -0.004949094140
 79       0.000554668447
 80       0.001267170668
 81      -0.000277418610
 82      -0.001185660372
 83      -0.002708930262
 84       0.000593321213
 85       0.000163297072
 86       0.000366653174
 87      -0.000079007719
 88       0.000042179897
 89       0.000015896878
 90       0.000028855351
 91       0.000057227423
 92      -0.000061047485
 93      -0.000258018725
 94      -0.000237354095
 95      -0.000158384498
 96      -0.000499069721
 97       0.000494592730
 98      -0.000013845290
 99       0.000003571836
100       0.000024439215
101      -0.000001731327
102       0.000031131823
103      -0.000055388693
104      -0.000024426613
105      -0.000846643629
106       0.000222016648
107       0.000507074141
108      -0.000110951053
109       0.159875495464
110       0.150956446123
111       0.091958241694
112       0.009070747921
113       0.005497914224
114       0.002223721837
115       0.000561838542
116       0.000119976510
117       0.000188864788
118      -0.001245439715
119      -0.000306750854
120      -0.000402253330
121       0.000246696119
122      -0.000522652760
123       0.000315601191
124      -0.000011546634
125       0.000012412671
126       0.000011664105
127       0.000028253748
128       0.000020334208
129       0.000076703091
130      -0.000105119574
131      -0.000118383944
132      -0.000264279475
133      -0.000151481188
134       0.000011813238
135      -0.000004312535
136      -0.000012171918
137      -0.000015100739
138      -0.000007460250
139       0.000035881554
140      -0.000003587650
141       0.000485832545
142       0.000245443035
143       0.000037483984
144       0.000088519496
 Sym=     1a
 Ene= -2.00768250042576E+01
 Spin= Alpha
 Occup= 2.000000
  1       0.307983477474
  2       0.290802003974
  3       0.177148673577
  4       0.017448700895
  5       0.010391443368
  6       0.004152378588
  7      -0.000617710959
  8       0.000799111248
  9      -0.000584873015
 10       0.001355220560
 11      -0.001712269512
 12       0.001266425634
 13       0.000084846696
 14       0.000477608481
 15      -0.000157486817
 16      -0.000005115582
 17       0.000036686851
 18      -0.000043950756
 19      -0.000008533033
 20      -0.000055458822
 21      -0.000031808644
 22      -0.000248663542
 23       0.000327450436
 24       0.000087939629
 25       0.000515151841
 26      -0.000006260222
 27       0.000005623824
 28      -0.000009224351
 29      -0.000023039430
 30      -0.000035430758
 31       0.000045007726
 32       0.000011725784
 33       0.000769730649
 34      -0.000246055181
 35       0.000333839620
 36      -0.000239295570
 37      -0.000000026776
 38       0.000000089470
 39      -0.000000450103
 40       0.000000340795
 41      -0.000004689847
 42      -0.000002278860
 43       0.000308132759
 44      -0.000096163537
 45       0.000169209811
 46       0.003929884571
 47      -0.001226451945
 48       0.002158076750
 49      -0.002854913738
 50       0.000890966428
 51      -0.001567759737
 52       0.000052477843
 53      -0.000005922164
 54      -0.000156819927
 55      -0.000191322631
 56      -0.000216312805
 57       0.000401749117
 58      -0.000046571651
 59      -0.001197514483
 60      -0.001462025236
 61      -0.001653789053
 62      -0.000222859550
 63      -0.000060481753
 64      -0.000048963745
 65       0.000083805915
 66      -0.000126844616
 67      -0.000016120996
 68      -0.000060826198
 69       0.000001088339
 70       0.000255815523
 71      -0.000079835697
 72       0.000140479833
 73       0.001700106696
 74       0.001605264063
 75       0.000977887812
 76       0.000096123984
 77       0.000055814142
 78       0.000021912517
 79       0.000009664752
 80      -0.000009672229
 81       0.000007997079
 82       0.000020952429
 83       0.000007093452
 84       0.000005996060
 85       0.000606908840
 86      -0.000194041297
 87       0.000335154683
 88      -0.000001806707
 89       0.000000159067
 90       0.000004622805
 91       0.000005550231
 92       0.000006958866
 93       0.000010286511
 94      -0.000000114740
 95      -0.000026290563
 96      -0.000030702470
 97      -0.000039953099
 98       0.000011660830
 99       0.000008821249
100       0.000005352155
101       0.000010302936
102       0.000001074575
103      -0.000009501238
104       0.000023035921
105       0.000002969610
106       0.000020014951
107      -0.000008832323
108       0.000012036059
109      -0.308933134534
110      -0.291698680469
111      -0.177694894554
112      -0.017502893998
113      -0.010426595211
114      -0.004167222284
115      -0.001085275575
116      -0.000260982903
117      -0.000353003244
118       0.002350284950
119       0.000542212472
120       0.000773943431
121      -0.000305397910
122      -0.000404143955
123       0.000034499087
124       0.000024282782
125      -0.000038664314
126      -0.000012949223
127      -0.000060667407
128      -0.000023376934
129      -0.000140607657
130       0.000266856267
131       0.000182977189
132       0.000533401304
133       0.000192391566
134      -0.000009078898
135      -0.000015458095
136       0.000003038354
137       0.000014077605
138       0.000032248242
139      -0.000035737132
140      -0.000035804255
141      -0.000774685386
142      -0.000444731904
143      -0.000115671546
144      -0.000141090980
 Sym=     1a
 Ene= -2.00767806527767E+01
 Spin= Alpha
 Occup= 2.000000
  1       0.262798313796
  2       0.248138803612
  3       0.151164010737
  4       0.014692989787
  5       0.007307630734
  6       0.002520320435
  7      -0.000542433515
  8       0.000689999565
  9      -0.000508804158
 10       0.000878362961
 11      -0.001121012690
 12       0.000825217386
 13       0.000005745418
 14      -0.000073861680
 15       0.000032388040
 16      -0.000056357881
 17       0.000075612990
 18      -0.000083526226
 19      -0.000012548943
 20      -0.000029197237
 21       0.000151782044
 22      -0.000313510930
 23       0.000377141330
 24       0.000082652345
 25       0.000288198671
 26      -0.000065801422
 27       0.000003481887
 28       0.000004196213
 29      -0.000005761331
 30      -0.000046026394
 31      -0.000004641566
 32      -0.000005514586
 33      -0.000636595252
 34      -0.000105724211
 35       0.000132382512
 36      -0.000098229736
 37      -0.000026956098
 38       0.000090432559
 39      -0.000453219270
 40       0.000340442369
 41      -0.004717895225
 42      -0.002286970975
 43      -0.000009699028
 44      -0.000021433038
 45       0.000004704899
 46      -0.000123368325
 47      -0.000273390713
 48       0.000059366658
 49       0.000089548446
 50       0.000198532870
 51      -0.000043034720
 52      -0.000214949631
 53       0.000203197762
 54      -0.000183247093
 55       0.000010785511
 56       0.000065531769
 57      -0.000530486500
 58       0.000569770011
 59      -0.000460260889
 60       0.000100073638
 61       0.000103279994
 62      -0.000005283975
 63       0.000008801935
 64       0.000007046871
 65      -0.000013327678
 66      -0.000008347120
 67       0.000001773883
 68       0.000004858501
 69       0.001093732281
 70      -0.000008034311
 71      -0.000017766857
 72       0.000003887610
 73       0.227901942612
 74       0.215189203794
 75       0.131091997112
 76       0.012715876484
 77       0.006130080095
 78       0.002049768851
 79      -0.000346860782
 80      -0.000792436455
 81       0.000173532912
 82       0.000534663745
 83       0.001221383148
 84      -0.000267615132
 85       0.000042871902
 86       0.000099165435
 87      -0.000021869124
 88      -0.000076093748
 89       0.000033746511
 90      -0.000060016377
 91      -0.000036843540
 92       0.000056177075
 93       0.000290660505
 94      -0.000033881926
 95       0.000217041691
 96       0.000241760556
 97      -0.000296750627
 98       0.000026263448
 99      -0.000032707069
100      -0.000037452748
101       0.000048096475
102       0.000014484816
103       0.000021641914
104      -0.000004787818
105      -0.000723974655
106      -0.000055697674
107      -0.000127114587
108       0.000027906016
109       0.263244642864
110       0.248560233539
111       0.151420734034
112       0.014718274955
113       0.007322688680
114       0.002526341369
115       0.000942619938
116       0.000220100665
117       0.000309308632
118      -0.001529937385
119      -0.000359422099
120      -0.000501331716
121      -0.000060768052
122      -0.000052048631
123      -0.000004564608
124      -0.000073969415
125       0.000077497667
126      -0.000031461461
127       0.000050844335
128       0.000043037238
129       0.000273844643
130      -0.000326555557
131       0.000016104235
132      -0.000356945432
133      -0.000212544127
134       0.000042282959
135       0.000031881220
136       0.000027273888
137      -0.000047671343
138       0.000016058030
139       0.000004542596
140       0.000021665851
141      -0.000635481074
142       0.000182371622
143       0.000041424311
144       0.000060400272
 Sym=     1a
 Ene= -1.09351496040022E+01
 Spin= Alpha
 Occup= 2.000000
  1      -0.000094900484
  2      -0.000115089259
  3      -0.000095598161
  4       0.000588174306
  5       0.001104278079
  6      -0.000895646657
  7      -0.000191791064
  8       0.000244431156
  9      -0.000180036015
 10       0.000522380786
 11      -0.000665794691
 12       0.000490424725
 13       0.000082212641
 14      -0.000104744171
 15       0.000077073127
 16      -0.000002539055
 17       0.000014466105
 18      -0.000018914026
 19      -0.000005282725
 20      -0.000022280738
 21       0.000075815714
 22      -0.000252917412
 23       0.000319130768
 24       0.000080934975
 25       0.000325537604
 26       0.000006922622
 27       0.000004361231
 28      -0.000011077566
 29      -0.000009049617
 30      -0.000026529432
 31       0.000038935385
 32       0.000020507427
 33      -0.001829875437
 34       0.000359422197
 35      -0.000458134563
 36       0.000337714901
 37       0.467757680123
 38       0.404139818136
 39       0.227264338178
 40       0.019802278825
 41       0.006121355330
 42       0.009498764470
 43       0.000000201386
 44      -0.000000114165
 45      -0.000000429625
 46      -0.000000587453
 47       0.000000199486
 48       0.000001187719
 49       0.000000055517
 50      -0.000000136540
 51      -0.000000179385
 52      -0.000481871771
 53       0.000425888031
 54      -0.000407306474
 55      -0.000007713811
 56       0.000172274733
 57      -0.000673034142
 58       0.000594904514
 59      -0.000568896319
 60      -0.000010706645
 61       0.000240562744
 62       0.000115387181
 63       0.000100024974
 64      -0.000245598059
 65      -0.000206737869
 66      -0.000621695041
 67       0.000870287443
 68       0.000456300055
 69       0.000868800053
 70       0.000000082412
 71      -0.000000020483
 72      -0.000000161989
 73      -0.000094890947
 74      -0.000115074680
 75      -0.000095599353
 76       0.000588199360
 77       0.001104179805
 78      -0.000895426689
 79      -0.000141187767
 80      -0.000322515105
 81       0.000070668775
 82       0.000384534163
 83       0.000878437579
 84      -0.000192444197
 85       0.000060500017
 86       0.000138111212
 87      -0.000030333418
 88      -0.000013518196
 89      -0.000006109769
 90      -0.000009109116
 91      -0.000019410558
 92       0.000020449457
 93       0.000242808381
 94       0.000060028449
 95       0.000169963934
 96       0.000295821294
 97      -0.000324306854
 98       0.000004426343
 99       0.000005305002
100      -0.000009915854
101      -0.000010500758
102      -0.000028051563
103       0.000038142592
104       0.000020444613
105      -0.001829877345
106       0.000264565544
107       0.000604648966
108      -0.000132248837
109      -0.000094900199
110      -0.000115088779
111      -0.000095598154
112       0.000588174584
113       0.001104275172
114      -0.000895644553
115       0.000333048784
116       0.000078053043
117       0.000109222296
118      -0.000907187869
119      -0.000212610124
120      -0.000297462802
121      -0.000142669687
122      -0.000033454658
123      -0.000046867758
124      -0.000010738686
125       0.000015321895
126       0.000005374231
127       0.000024259506
128       0.000011415094
129       0.000200557437
130      -0.000265903676
131      -0.000050261549
132      -0.000368371149
133      -0.000186905746
134       0.000004030808
135       0.000003600845
136      -0.000011670989
137      -0.000007940599
138      -0.000028160110
139       0.000038730442
140       0.000019759555
141      -0.001829873693
142      -0.000624424221
143      -0.000146247902
144      -0.000204518638
 Sym=     1a
 Ene= -9.45796275117740E-01
 Spin= Alpha
 Occup= 2.000000
  1      -0.048483095853
  2      -0.073245038963
  3      -0.047585107336
  4       0.164301435265
  5      -0.224859138216
  6       0.079158889128
  7      -0.028685415616
  8       0.036554757046
  9      -0.026922840705
 10      -0.026861847594
 11       0.034230352407
 12      -0.025211666279
 13      -0.001732837398
 14       0.002209069152
 15      -0.001627345820
 16      -0.000484479523
 17       0.001693135649
 18      -0.002144608794
 19      -0.000549883720
 20      -0.002226091416
 21      -0.001074299610
 22       0.004525591241
 23      -0.005812970223
 24      -0.001549397257
 25      -0.006398539139
 26       0.001022580204
 27      -0.000161800200
 28       0.000172431471
 29       0.000332404580
 30       0.001421471760
 31      -0.000808308595
 32      -0.000348475729
 33      -0.000889502199
 34      -0.000056222192
 35       0.000071481280
 36      -0.000051848124
 37      -0.064013467614
 38      -0.087659014461
 39      -0.059121265565
 40       0.240961306075
 41      -0.125306506740
 42       0.012856023441
 43      -0.000014494090
 44      -0.000002743072
 45       0.000025333564
 46      -0.000003574247
 47      -0.000001203136
 48       0.000005965154
 49      -0.000000496111
 50      -0.000003305260
 51      -0.000001032990
 52      -0.009610897137
 53       0.008494824627
 54      -0.008123776749
 55      -0.000153314155
 56       0.003435547903
 57      -0.002244530020
 58       0.001984703477
 59      -0.001897338280
 60      -0.000034939344
 61       0.000801623241
 62       0.001116560803
 63       0.000967060127
 64      -0.002375328547
 65      -0.002000014614
 66      -0.006014777522
 67       0.008419162275
 68       0.004414215952
 69       0.005974585068
 70       0.000000012357
 71      -0.000000400998
 72      -0.000000247696
 73      -0.048477518073
 74      -0.073236656724
 75      -0.047579570047
 76       0.164282648695
 77      -0.224834087221
 78       0.079152879451
 79      -0.021112911902
 80      -0.048225333238
 81       0.010569365025
 82      -0.019770774655
 83      -0.045160263796
 84       0.009897138413
 85      -0.001275952060
 86      -0.002915144818
 87       0.000638388259
 88      -0.001620177033
 89      -0.000436073617
 90      -0.001129596049
 91      -0.002011648988
 92       0.002194717234
 93      -0.004285052293
 94      -0.001493582385
 95      -0.002943824329
 96      -0.005682141249
 97       0.006098844213
 98      -0.000592404059
 99       0.000467976882
100       0.000934211410
101      -0.000621708456
102       0.000432242950
103      -0.001346376125
104      -0.000421115486
105      -0.000885629627
106      -0.000041851306
107      -0.000094723251
108       0.000021451454
109      -0.048482906450
110      -0.073244753829
111      -0.047584918890
112       0.164300785672
113      -0.224858286624
114       0.079158537710
115       0.049807389441
116       0.011671836881
117       0.016337445049
118       0.046641094513
119       0.010929268584
120       0.015298519474
121       0.003009924867
122       0.000705557920
123       0.000986571103
124      -0.001333050299
125       0.001781520279
126       0.000368412995
127       0.002506780483
128       0.001260159068
129      -0.003473122805
130       0.004775397341
131       0.001290911073
132       0.007091283981
133       0.003456454656
134      -0.000841038561
135      -0.000662628168
136      -0.000231812466
137       0.001025722449
138       0.000360512089
139      -0.000945017099
140      -0.000855645615
141      -0.000889531661
142       0.000096817442
143       0.000022963037
144       0.000032499018
 Sym=     1a
 Ene= -8.09146359479587E-01
 Spin= Alpha
 Occup= 2.000000
  1       0.041057770283
  2       0.062095067776
  3       0.040726390420
  4      -0.142345182761
  5       0.192560818127
  6      -0.089573310596
  7       0.025510018191
  8      -0.008673508586
  9       0.014302706076
 10       0.026344223863
 11      -0.010659888874
 12       0.015459117607
 13       0.005238598374
 14      -0.000482376420
 15       0.002411873509
 16       0.000223306603
 17      -0.001351951495
 18       0.000954236589
 19      -0.000482482520
 20       0.001430357187
 21       0.000366496574
 22      -0.005043551737
 23       0.003423683037
 24      -0.001999510666
 25       0.006031149590
 26      -0.000527961304
 27       0.000282877828
 28      -0.000228617857
 29       0.000452845998
 30      -0.001396776602
 31       0.000563620961
 32       0.001247900427
 33      -0.015017027827
 34       0.001685352648
 35      -0.002478130399
 36       0.001716494141
 37      -0.000002249119
 38      -0.000002975790
 39      -0.000002353761
 40       0.000008397766
 41      -0.000010140344
 42      -0.000000502488
 43       0.061687990649
 44       0.146495049307
 45      -0.033161302107
 46       0.025549855662
 47       0.060675147707
 48      -0.013734710383
 49      -0.005060207407
 50      -0.012016861609
 51       0.002720194334
 52      -0.002840754492
 53      -0.008530307025
 54      -0.000814559597
 55      -0.011580369106
 56       0.010703701019
 57      -0.002125737114
 58      -0.006389998513
 59      -0.000614447606
 60      -0.008669171540
 61       0.008016642172
 62       0.000857038157
 63      -0.001056839644
 64      -0.001159625555
 65       0.001561694059
 66       0.000572216278
 67       0.000571102957
 68      -0.000209786896
 69      -0.000000032758
 70      -0.000019930909
 71      -0.000047343940
 72       0.000010719149
 73      -0.079944066282
 74      -0.120906095346
 75      -0.079298762084
 76       0.277162519817
 77      -0.374936417727
 78       0.174408377753
 79      -0.020667594728
 80      -0.046619600339
 81       0.010103144504
 82      -0.022478762873
 83      -0.050779459237
 84       0.011019226400
 85      -0.003377964022
 86      -0.007562927592
 87       0.001627791213
 88      -0.001793786541
 89      -0.000484431001
 90      -0.001239825784
 91      -0.002217053727
 92       0.002439664566
 93      -0.006256271683
 94      -0.002909917848
 95      -0.004162186470
 96      -0.009021600116
 97       0.009569682940
 98      -0.000805354895
 99       0.000440989427
100       0.001348676271
101      -0.000488956549
102       0.001165071602
103      -0.002500054752
104      -0.000960864144
105       0.029238717898
106      -0.002635665460
107      -0.006030534630
108       0.001321603308
109       0.038878319645
110       0.058798905345
111       0.038564526208
112      -0.134789107010
113       0.182339303444
114      -0.084818532037
115      -0.024673245872
116       0.008199391550
117      -0.013745498346
118      -0.026713909084
119       0.007179595632
120      -0.014195880668
121      -0.004125760378
122       0.002666156616
123      -0.002822018098
124       0.000513106797
125      -0.001339371624
126      -0.000017696636
127      -0.001611423285
128       0.000114656927
129       0.001571456565
130      -0.005018212442
131      -0.000501427044
132      -0.006585933343
133       0.000674555833
134       0.000663782289
135       0.000102709820
136      -0.000213738172
137      -0.001184319303
138      -0.000216182071
139       0.001490572406
140      -0.000123267408
141      -0.014219874362
142      -0.003011210353
143      -0.000899019727
144      -0.000908536726
 Sym=     1a
 Ene= -8.09139992400095E-01
 Spin= Alpha
 Occup= 2.000000
  1       0.068602443405
  2       0.103753151300
  3       0.068048833923
  4      -0.237842185163
  5       0.321742433813
  6      -0.149666876790
  7       0.017093562822
  8      -0.036053058048
  9       0.021820952349
 10       0.019475056149
 11      -0.038535951070
 12       0.023832701457
 13       0.002119253611
 14      -0.006408540590
 15       0.003490339203
 16       0.000487975813
 17      -0.001372446153
 18       0.002193228703
 19       0.000998243028
 20       0.002016383082
 21       0.001084239493
 22      -0.004786504226
 23       0.008179277217
 24       0.004069717794
 25       0.008542361564
 26      -0.000919977658
 27       0.000174073242
 28      -0.000403026930
 29      -0.000978453141
 30      -0.001859749474
 31       0.001840661901
 32       0.000292717562
 33      -0.025092641562
 34       0.003169361375
 35      -0.003842265069
 36       0.002896804065
 37      -0.000000024921
 38      -0.000000033898
 39      -0.000000023982
 40       0.000000115280
 41      -0.000000020998
 42       0.000000037382
 43      -0.138013534502
 44       0.041137667576
 45      -0.075007175660
 46      -0.057163908824
 47       0.017038840106
 48      -0.031067269145
 49       0.011321835054
 50      -0.003374700486
 51       0.006153157796
 52      -0.002842552970
 53       0.000434743835
 54       0.008562419966
 55       0.010581502210
 56       0.011691976503
 57      -0.002124417354
 58       0.000328914098
 59       0.006411344810
 60       0.007922288091
 61       0.008757449377
 62       0.001939194740
 63       0.000541729018
 64       0.000442390521
 65      -0.000750337572
 66       0.001102848717
 67       0.000134256404
 68       0.000535557517
 69       0.000000010319
 70       0.000044941131
 71      -0.000013400900
 72       0.000024426616
 73       0.001258272094
 74       0.001902990158
 75       0.001248116163
 76      -0.004362379432
 77       0.005901270009
 78      -0.002745123639
 79      -0.014184763063
 80       0.005333527003
 81      -0.008156024553
 82      -0.013594120647
 83       0.005220803572
 84      -0.007860631234
 85      -0.003717880431
 86       0.001314488393
 87      -0.002103982743
 88      -0.000145490065
 89       0.000026021880
 90       0.000534936292
 91       0.000661757230
 92       0.000676868850
 93      -0.000615153871
 94       0.000121225131
 95       0.002182314617
 96       0.002716507101
 97       0.002786814177
 98       0.000291841796
 99       0.000346782814
100       0.000182452157
101       0.000610789665
102      -0.000122420150
103      -0.000455194789
104       0.001051284589
105      -0.000460235991
106       0.000242505083
107       0.000031200372
108       0.000089985454
109      -0.069860805870
110      -0.105656278936
111      -0.069297036092
112       0.242204851297
113      -0.327644187578
114       0.152412151941
115       0.041455551723
116       0.017495860855
117       0.010446073505
118       0.045232194427
119       0.018079935262
120       0.011806710334
121       0.006665470556
122       0.003583786544
123       0.001367353317
124      -0.001400501665