[Molden Format]
[Title]
 Molden file created by orca_2mkl for BaseName=/data01/Nikolayandreadi/heavy/simpleIons/CO3_2-

[Atoms] AU
O    1   8          2.0630855701        -1.2211210914        -0.0419173974 
C    2   6          0.7431440735         0.4610595182        -1.2810095961 
O    3   8          1.7148153252         2.6807152141        -1.7673212657 
O    4   8         -1.5489819711        -0.0760692849        -2.0326594501 
[GTO]
  1 0
s   6 1.0 
    27032.3826310000         1.4645050749
     4052.3871392000         1.8244031008
      922.3272271000         2.8547160967
      261.2407098900         4.3654874290
       85.3546413500         5.8940772662
       31.0350352400         6.2963020147
s   1 1.0 
       12.2608607300         4.6698272139
s   1 1.0 
        4.9987076000         2.3826123703
s   1 1.0 
        1.1703108200         0.8019291632
s   1 1.0 
        0.4647474100        -0.4011648063
s   1 1.0 
        0.1850453600         0.2010799377
p   4 1.0 
       63.2749548000         3.0898340730
       14.6270493800         3.3923831935
        4.4501223500         2.9482801524
        1.5275799600         1.7113350234
p   1 1.0 
        0.5293511800         0.6436057935
p   1 1.0 
        0.1747842100         0.1610897223
d   1 1.0 
        2.3140000000        12.3767310624
d   1 1.0 
        0.6450000000         1.3234257612
f   1 1.0 
        1.4280000000        12.7097950062
s   1 1.0 
        0.0616817867         0.0882120269
p   1 1.0 
        0.0582614033         0.0408005732

  2 0
s   6 1.0 
    13575.3496820000         0.7684632837
     2035.2333680000         1.0861436461
      463.2256235900         1.7703924000
      131.2001959800         2.7178496271
       42.8530158900         3.6101953426
       15.5841857700         3.6946140086
s   1 1.0 
        6.2067138500         2.8025694579
s   1 1.0 
        2.5764896500         1.4493770955
s   1 1.0 
        0.5769633900         0.4718145012
s   1 1.0 
        0.2297283100        -0.2364944648
s   1 1.0 
        0.0951644400         0.1221141848
p   4 1.0 
       34.6972322400         1.3669717438
        7.9582622800         1.4530900682
        2.3780826900         1.2707683638
        0.8143320800         0.8025478511
p   1 1.0 
        0.2888754700         0.3018758836
p   1 1.0 
        0.1005682400         0.0807265050
d   1 1.0 
        1.0970000000         3.3522135855
d   1 1.0 
        0.3180000000         0.3838994974
f   1 1.0 
        0.7610000000         3.0840084332
s   1 1.0 
        0.0317214800         0.0535704351
p   1 1.0 
        0.0335227467         0.0204462931

  3 0
s   6 1.0 
    27032.3826310000         1.4645050749
     4052.3871392000         1.8244031008
      922.3272271000         2.8547160967
      261.2407098900         4.3654874290
       85.3546413500         5.8940772662
       31.0350352400         6.2963020147
s   1 1.0 
       12.2608607300         4.6698272139
s   1 1.0 
        4.9987076000         2.3826123703
s   1 1.0 
        1.1703108200         0.8019291632
s   1 1.0 
        0.4647474100        -0.4011648063
s   1 1.0 
        0.1850453600         0.2010799377
p   4 1.0 
       63.2749548000         3.0898340730
       14.6270493800         3.3923831935
        4.4501223500         2.9482801524
        1.5275799600         1.7113350234
p   1 1.0 
        0.5293511800         0.6436057935
p   1 1.0 
        0.1747842100         0.1610897223
d   1 1.0 
        2.3140000000        12.3767310624
d   1 1.0 
        0.6450000000         1.3234257612
f   1 1.0 
        1.4280000000        12.7097950062
s   1 1.0 
        0.0616817867         0.0882120269
p   1 1.0 
        0.0582614033         0.0408005732

  4 0
s   6 1.0 
    27032.3826310000         1.4645050749
     4052.3871392000         1.8244031008
      922.3272271000         2.8547160967
      261.2407098900         4.3654874290
       85.3546413500         5.8940772662
       31.0350352400         6.2963020147
s   1 1.0 
       12.2608607300         4.6698272139
s   1 1.0 
        4.9987076000         2.3826123703
s   1 1.0 
        1.1703108200         0.8019291632
s   1 1.0 
        0.4647474100        -0.4011648063
s   1 1.0 
        0.1850453600         0.2010799377
p   4 1.0 
       63.2749548000         3.0898340730
       14.6270493800         3.3923831935
        4.4501223500         2.9482801524
        1.5275799600         1.7113350234
p   1 1.0 
        0.5293511800         0.6436057935
p   1 1.0 
        0.1747842100         0.1610897223
d   1 1.0 
        2.3140000000        12.3767310624
d   1 1.0 
        0.6450000000         1.3234257612
f   1 1.0 
        1.4280000000        12.7097950062
s   1 1.0 
        0.0616817867         0.0882120269
p   1 1.0 
        0.0582614033         0.0408005732

[5D]
[7F]
[9G]
[MO]
 Sym=     1a
 Ene= -2.00605495799897E+01
 Spin= Alpha
 Occup= 2.000000
  1      -0.123372907847
  2      -0.118858415170
  3      -0.070724112205
  4      -0.007880359549
  5      -0.005550606825
  6      -0.002376889141
  7       0.000274826797
  8      -0.000323926044
  9       0.000247432199
 10      -0.000696948910
 11       0.000930311209
 12      -0.000671443258
 13       0.000738511419
 14       0.000327252668
 15       0.000180132471
 16      -0.000011885904
 17       0.000001826204
 18       0.000012425234
 19       0.000016088169
 20       0.000029503273
 21       0.000054107966
 22       0.000058639506
 23      -0.000161588332
 24      -0.000117852677
 25      -0.000272098766
 26      -0.000009579664
 27      -0.000002282088
 28       0.000013238370
 29      -0.000017388867
 30       0.000023400808
 31      -0.000023594188
 32      -0.000034165478
 33      -0.000673371401
 34       0.000172265382
 35      -0.000189351287
 36       0.000149599487
 37      -0.000006392449
 38       0.000026937288
 39      -0.000116050613
 40       0.000082000978
 41      -0.001115176665
 42      -0.000568982387
 43       0.000155706199
 44       0.000355641308
 45      -0.000077956413
 46       0.002181757149
 47       0.004983022321
 48      -0.001092457426
 49      -0.001641025161
 50      -0.003747999202
 51       0.000821710408
 52      -0.000116393919
 53      -0.000140641382
 54      -0.000067045723
 55      -0.000260761416
 56       0.000252193059
 57      -0.000605475671
 58      -0.001330593126
 59      -0.000272447547
 60      -0.001992818558
 61       0.001830004077
 62       0.000119238275
 63      -0.000152570678
 64      -0.000168617695
 65       0.000225234197
 66       0.000077114159
 67       0.000085354756
 68      -0.000029507961
 69       0.000289622161
 70       0.000164599573
 71       0.000375950305
 72      -0.000082411286
 73       0.395945765565
 74       0.381456341007
 75       0.226987240734
 76       0.025071816525
 77       0.016153912429
 78       0.006568247684
 79      -0.000627227370
 80      -0.001433067194
 81       0.000313778078
 82       0.001477775289
 83       0.003376076409
 84      -0.000739443304
 85      -0.000180072354
 86      -0.000411498790
 87       0.000090042677
 88      -0.000055036815
 89      -0.000020251175
 90      -0.000037678279
 91      -0.000074112511
 92       0.000079257350
 93       0.000355627860
 94       0.000277626856
 95       0.000224482976
 96       0.000634990350
 97      -0.000639038895
 98       0.000024432727
 99      -0.000011432012
100      -0.000041184982
101       0.000012093677
102      -0.000040031324
103       0.000080680296
104       0.000032862988
105       0.000806319379
106      -0.000285905738
107      -0.000653274309
108       0.000143000866
109      -0.123373766490
110      -0.118859242390
111      -0.070724604438
112      -0.007880414085
113      -0.005550642778
114      -0.002376904180
115      -0.000457075223
116      -0.000091909557
117      -0.000155944961
118       0.001242779104
119       0.000315407622
120       0.000397609875
121      -0.000306958850
122       0.000658672575
123      -0.000396063666
124      -0.000000426106
125       0.000000589706
126      -0.000021646923
127      -0.000025346154
128      -0.000017797122
129      -0.000050188543
130       0.000069598455
131       0.000147576899
132       0.000258176771
133       0.000156871043
134      -0.000009250266
135       0.000009176455
136       0.000019115305
137       0.000011341060
138       0.000012816549
139      -0.000044630808
140       0.000005120586
141      -0.000673374331
142      -0.000276006927
143      -0.000047246667
144      -0.000097459261
 Sym=     1a
 Ene= -2.00605308485342E+01
 Spin= Alpha
 Occup= 2.000000
  1      -0.305953073023
  2      -0.294757022732
  3      -0.175394659693
  4      -0.019413477275
  5      -0.012786883516
  6      -0.005269517281
  7       0.000649209132
  8      -0.000843012141
  9       0.000615967405
 10      -0.001616548540
 11       0.002035649823
 12      -0.001507860743
 13      -0.000126101293
 14      -0.000586460975
 15       0.000184096112
 16      -0.000000021970
 17      -0.000039188656
 18       0.000047546990
 19       0.000009417801
 20       0.000069222365
 21       0.000038948890
 22       0.000302815214
 23      -0.000393647134
 24      -0.000100946366
 25      -0.000623469631
 26       0.000010944460
 27      -0.000008113739
 28       0.000012423159
 29       0.000029782945
 30       0.000050579282
 31      -0.000060303951
 32      -0.000017729944
 33      -0.000870944505
 34       0.000313326845
 35      -0.000417208608
 36       0.000301527464
 37      -0.000000000053
 38       0.000000000219
 39      -0.000000000970
 40       0.000000000650
 41      -0.000000009471
 42      -0.000000004948
 43      -0.000341023230
 44       0.000108107298
 45      -0.000187950517
 46      -0.004777515524
 47       0.001514513613
 48      -0.002633065442
 49       0.003592710436
 50      -0.001138919935
 51       0.001980075439
 52      -0.000065212330
 53       0.000006748111
 54       0.000192979857
 55       0.000234737387
 56       0.000267682570
 57      -0.000499042619
 58       0.000052140740
 59       0.001478387041
 60       0.001798177600
 61       0.002051056647
 62       0.000286215512
 63       0.000076909723
 64       0.000062084390
 65      -0.000106501275
 66       0.000162954974
 67       0.000021017512
 68       0.000077862065
 69       0.000000002387
 70      -0.000360435522
 71       0.000114261176
 72      -0.000198649332
 73       0.000000805477
 74       0.000000775990
 75       0.000000461792
 76       0.000000050602
 77       0.000000030258
 78       0.000000011579
 79      -0.000016214709
 80       0.000005136832
 81      -0.000008935114
 82      -0.000025913916
 83       0.000008221842
 84      -0.000014284981
 85      -0.000780461477
 86       0.000247411696
 87      -0.000430140541
 88       0.000002204859
 89      -0.000000274661
 90      -0.000006672241
 91      -0.000008106264
 92      -0.000009290570
 93      -0.000012941983
 94       0.000001512795
 95       0.000038848837
 96       0.000047219374
 97       0.000054018773
 98      -0.000014675491
 99      -0.000010651229
100      -0.000006646549
101      -0.000011547566
102      -0.000002048454
103       0.000011290729
104      -0.000027088458
105      -0.000000000628
106      -0.000018625077
107       0.000005903193
108      -0.000010264565
109       0.305953528690
110       0.294757461713
111       0.175394920969
112       0.019413505308
113       0.012786895947
114       0.005269521004
115       0.001139557680
116       0.000275961024
117       0.000369886831
118      -0.002788527340
119      -0.000639209727
120      -0.000919936682
121       0.000355794230
122       0.000513647713
123      -0.000057504439
124      -0.000022959466
125       0.000041565973
126       0.000020457706
127       0.000073302376
128       0.000025106246
129       0.000168046176
130      -0.000324200683
131      -0.000218797917
132      -0.000644028865
133      -0.000226024481
134       0.000014233937
135       0.000021608260
136      -0.000003473105
137      -0.000022095007
138      -0.000042552851
139       0.000049767046
140       0.000047737695
141       0.000870940766
142       0.000557985296
143       0.000140996403
144       0.000178684386
 Sym=     1a
 Ene= -2.00604902053456E+01
 Spin= Alpha
 Occup= 2.000000
  1       0.279978567736
  2       0.269731996488
  3       0.160515196398
  4       0.017509447977
  5       0.009760238159
  6       0.003583242077
  7      -0.000614983611
  8       0.000778438808
  9      -0.000575288224
 10       0.001122069641
 11      -0.001438385415
 12       0.001056734850
 13      -0.000089746288
 14      -0.000143173266
 15       0.000020062632
 16      -0.000062921166
 17       0.000088223053
 18      -0.000100044704
 19      -0.000017510571
 20      -0.000041118366
 21       0.000179366389
 22      -0.000389886799
 23       0.000481323560
 24       0.000116762143
 25       0.000384868685
 26      -0.000082379691
 27       0.000005533848
 28       0.000001646731
 29      -0.000006776497
 30      -0.000067203003
 31       0.000004156144
 32       0.000001001939
 33      -0.000786741967
 34      -0.000158698276
 35       0.000196046754
 36      -0.000146409015
 37      -0.000031459423
 38       0.000132530087
 39      -0.000571159779
 40       0.000404234217
 41      -0.005489110569
 42      -0.002801206038
 43      -0.000031701350
 44      -0.000072238554
 45       0.000015970396
 46      -0.000443677570
 47      -0.001012138719
 48       0.000222870158
 49       0.000333616542
 50       0.000761151771
 51      -0.000167531804
 52      -0.000255850387
 53       0.000275594219
 54      -0.000222626043
 55       0.000048498051
 56       0.000048691040
 57      -0.000552225061
 58       0.000866905909
 59      -0.000515373343
 60       0.000393833824
 61      -0.000130206357
 62      -0.000021800594
 63       0.000033210040
 64       0.000028939178
 65      -0.000050178371
 66      -0.000028892696
 67       0.000001255126
 68       0.000015750524
 69       0.001425937837
 70      -0.000033483082
 71      -0.000076318194
 72       0.000016856808
 73       0.174479564467
 74       0.168093627880
 75       0.100035460190
 76       0.010815193301
 77       0.005351070878
 78       0.001766141553
 79      -0.000284188511
 80      -0.000649250717
 81       0.000142199536
 82       0.000421507935
 83       0.000962792926
 84      -0.000211010520
 85       0.000080870464
 86       0.000184887946
 87      -0.000040385903
 88      -0.000081843384
 89       0.000040794503
 90      -0.000065122019
 91      -0.000034841767
 92       0.000056535390
 93       0.000306411560
 94      -0.000081416889
 95       0.000234659407
 96       0.000206244131
 97      -0.000273334931
 98       0.000031132718
 99      -0.000039542611
100      -0.000044108173
101       0.000058366767
102       0.000019399436
103       0.000023105402
104      -0.000007214018
105      -0.001087316402
106      -0.000032964400
107      -0.000075189861
108       0.000016563447
109       0.279977691425
110       0.269731152242
111       0.160514694050
112       0.017509392403
113       0.009760201772
114       0.003583227193
115       0.001063946280
116       0.000246203925
117       0.000350031857
118      -0.001954954469
119      -0.000462941894
120      -0.000639126963
121      -0.000042316700
122      -0.000158210510
123       0.000046203454
124      -0.000085937258
125       0.000090622694
126      -0.000031876273
127       0.000065404325
128       0.000053451756
129       0.000341229382
130      -0.000406722922
131       0.000002046902
132      -0.000466201883
133      -0.000280002091
134       0.000056501660
135       0.000040537118
136       0.000030564681
137      -0.000064323105
138       0.000014031071
139       0.000018607141
140       0.000030817345
141      -0.000786744102
142       0.000270766412
143       0.000059902443
144       0.000090284998
 Sym=     1a
 Ene= -1.09312211113388E+01
 Spin= Alpha
 Occup= 2.000000
  1       0.000095347908
  2       0.000107702189
  3       0.000123757924
  4      -0.000811031486
  5      -0.001626040398
  6       0.001260510691
  7       0.000220498895
  8      -0.000281018289
  9       0.000206985599
 10      -0.000765014547
 11       0.000975020077
 12      -0.000718198038
 13      -0.000155650592
 14       0.000198334257
 15      -0.000146004545
 16       0.000005055721
 17      -0.000020097158
 18       0.000025714414
 19       0.000006783172
 20       0.000027841753
 21      -0.000110864032
 22       0.000372412548
 23      -0.000470182131
 24      -0.000119440330
 25      -0.000480890034
 26       0.000025623290
 27      -0.000011582892
 28       0.000021214521
 29       0.000023920229
 30       0.000085489818
 31      -0.000081513779
 32      -0.000040272402
 33       0.002112261105
 34      -0.000408076352
 35       0.000520150897
 36      -0.000383412938
 37      -0.465818016330
 38      -0.407089776957
 39      -0.225310812572
 40      -0.021330751859
 41      -0.005806246208
 42      -0.010990930817
 43      -0.000000187696
 44       0.000000109468
 45       0.000000403605
 46       0.000000742862
 47      -0.000000197191
 48      -0.000001461548
 49      -0.000000045685
 50       0.000000139969
 51       0.000000162966
 52       0.000591292878
 53      -0.000522598620
 54       0.000499795403
 55       0.000009462666
 56      -0.000211393187
 57       0.000875821604
 58      -0.000774149466
 59       0.000740305591
 60       0.000013933723
 61      -0.000313047879
 62      -0.000138508486
 63      -0.000120083142
 64       0.000294828529
 65       0.000248177655
 66       0.000746295660
 67      -0.001044717596
 68      -0.000547756832
 69      -0.001004960763
 70      -0.000000086492
 71       0.000000014506
 72       0.000000165209
 73       0.000095339052
 74       0.000107687480
 75       0.000123761209
 76      -0.000811045727
 77      -0.001625858923
 78       0.001260216045
 79       0.000162322136
 80       0.000370793647
 81      -0.000081246406
 82      -0.000563122438
 83      -0.001286398599
 84       0.000281826081
 85      -0.000114550204
 86      -0.000261573786
 87       0.000057389379
 88       0.000019096376
 89       0.000006212563
 90       0.000013177318
 91       0.000024850184
 92      -0.000026796148
 93      -0.000357349542
 94      -0.000089520046
 95      -0.000249984799
 96      -0.000436622297
 97       0.000478308105
 98      -0.000026478869
 99       0.000008776712
100       0.000045809963
101      -0.000006895303
102       0.000053560994
103      -0.000098922359
104      -0.000042687602
105       0.002112277517
106      -0.000300383280
107      -0.000686490811
108       0.000150163692
109       0.000095347912
110       0.000107702170
111       0.000123757974
112      -0.000811031682
113      -0.001626040729
114       0.001260510124
115      -0.000382901582
116      -0.000089735906
117      -0.000125570402
118       0.001328534864
119       0.000311349626
120       0.000435633332
121       0.000270190049
122       0.000063339571
123       0.000088691787
124       0.000015541215
125      -0.000021190518
126      -0.000005341491
127      -0.000030990925
128      -0.000015242223
129      -0.000294998172
130       0.000391574685
131       0.000075065624
132       0.000543766421
133       0.000275504793
134      -0.000034487286
135      -0.000027762169
136       0.000008125558
137       0.000046231691
138       0.000051246140
139      -0.000085931824
140      -0.000056691078
141       0.002112260987
142       0.000708937884
143       0.000166049196
144       0.000232214324
 Sym=     1a
 Ene= -9.44356863383921E-01
 Spin= Alpha
 Occup= 2.000000
  1       0.047911271136
  2       0.073707981938
  3       0.047369523089
  4      -0.162920784511
  5       0.225785593909
  6      -0.078917035419
  7       0.028773813504
  8      -0.036667833706
  9       0.027006016367
 10       0.027115633979
 11      -0.034554151475
 12       0.025450054144
 13       0.001775531427
 14      -0.002263530915
 15       0.001667458950
 16       0.000482203620
 17      -0.001690100353
 18       0.002141298902
 19       0.000549430348
 20       0.002224981672
 21       0.001101682381
 22      -0.004601538252
 23       0.005907153124
 24       0.001572082608
 25       0.006486931452
 26      -0.001037337532
 27       0.000164383268
 28      -0.000175482472
 29      -0.000337736577
 30      -0.001443641979
 31       0.000822020430
 32       0.000354538215
 33       0.000610314761
 34       0.000054133137
 35      -0.000068767815
 36       0.000049850969
 37       0.063794417045
 38       0.088276211807
 39       0.058999041919
 40      -0.240848583773
 41       0.125218727148
 42      -0.012840367049
 43       0.000013440752
 44      -0.000000419589
 45      -0.000024635854
 46       0.000003022487
 47      -0.000000097720
 48      -0.000005542631
 49       0.000000630495
 50       0.000003572305
 51       0.000000903182
 52       0.009569103740
 53      -0.008457637759
 54       0.008088397433
 55       0.000152885509
 56      -0.003420845641
 57       0.002125029301
 58      -0.001878920472
 59       0.001796298358
 60       0.000033191400
 61      -0.000759053195
 62      -0.001109251536
 63      -0.000960670340
 64       0.002359733195
 65       0.001986837969
 66       0.005975240870
 67      -0.008363842413
 68      -0.004385198231
 69      -0.005641620356
 70      -0.000000026636
 71       0.000000427238
 72       0.000000291636
 73       0.047908347014
 74       0.073703536994
 75       0.047366600730
 76      -0.162911182612
 77       0.225772821299
 78      -0.078916753037
 79       0.021178859829
 80       0.048375933839
 81      -0.010602336573
 82       0.019958498843
 83       0.045589024709
 84      -0.009991072622
 85       0.001307530004
 86       0.002987275598
 87      -0.000654178388
 88       0.001617049634
 89       0.000437412276
 90       0.001127136524
 91       0.002010080777
 92      -0.002192367939
 93       0.004359136097
 94       0.001504847757
 95       0.002996579720
 96       0.005764901540
 97      -0.006191700809
 98       0.000601367520
 99      -0.000474648266
100      -0.000948484270
101       0.000630407337
102      -0.000439942378
103       0.001368060681
104       0.000428293423
105       0.000605366879
106       0.000040404952
107       0.000091404673
108      -0.000020736089
109       0.047911269805
110       0.073707979863
111       0.047369521873
112      -0.162920780040
113       0.225785588748
114      -0.078917035881
115      -0.049961425595
116      -0.011708185940
117      -0.016387843812
118      -0.047082249725
119      -0.011032878449
120      -0.015443104157
121      -0.003084141217
122      -0.000722979963
123      -0.001010883421
124       0.001330101839
125      -0.001778424306
126      -0.000369722057
127      -0.002504807604
128      -0.001258498095
129       0.003535268780
130      -0.004854975603
131      -0.001299622461
132      -0.007193771224
133      -0.003510806739
134       0.000853622841
135       0.000672571195
136       0.000234699647
137      -0.001041201728
138      -0.000367129455
139       0.000960721231
140       0.000869189063
141       0.000610306975
142      -0.000093146973
143      -0.000022080098
144      -0.000031320001
 Sym=     1a
 Ene= -8.07307919215320E-01
 Spin= Alpha
 Occup= 2.000000
  1      -0.039503235518
  2      -0.060839860163
  3      -0.039478431417
  4       0.137451971843
  5      -0.188358434276
  6       0.086876329759
  7      -0.025383165939
  8       0.008115976260
  9      -0.014023448203
 10      -0.026292342154
 11       0.010216270285
 12      -0.015257677544
 13      -0.005113100381
 14       0.000460214614
 15      -0.002349780715
 16      -0.000216717274
 17       0.001334238294
 18      -0.000918520207
 19       0.000504264412
 20      -0.001398685809
 21      -0.000350525254
 22       0.005000206161
 23      -0.003336015501
 24       0.002053176725
 25      -0.005953135573
 26       0.000516995357
 27      -0.000281341191
 28       0.000224292060
 29      -0.000471313096
 30       0.001376371871
 31      -0.000538789176
 32      -0.001250519822
 33       0.014625080431
 34      -0.001609654383
 35       0.002369421969
 36      -0.001640412695
 37       0.000000768636
 38       0.000000951977
 39       0.000000986746
 40      -0.000002809002
 41       0.000007003978
 42       0.000001044513
 43      -0.064084005833
 44      -0.146279368734
 45       0.032060748084
 46      -0.026319235616
 47      -0.060076789433
 48       0.013167317825
 49       0.004953022636
 50       0.011305861888
 51      -0.002477960670
 52       0.002790210090
 53       0.008522280890
 54       0.000949363779
 55       0.011728395096
 56      -0.010498340316
 57       0.002029800286
 58       0.006205935757
 59       0.000695621801
 60       0.008535048226
 61      -0.007643600900
 62      -0.000807104284
 63       0.001041058138
 64       0.001139861759
 65      -0.001537602598
 66      -0.000542019487
 67      -0.000555718634
 68       0.000213422552
 69       0.000000171901
 70       0.000076208514
 71       0.000173955302
 72      -0.000038127064
 73       0.079041654626
 74       0.121733983798
 75       0.078992000712
 76      -0.275027297879
 77       0.376883809139
 78      -0.173831565878
 79       0.020537553739
 80       0.046924910506
 81      -0.010281542025
 82       0.022531350095
 83       0.051478618627
 84      -0.011279591690
 85       0.003320302451
 86       0.007587617091
 87      -0.001662205723
 88       0.001794367005
 89       0.000481934388
 90       0.001250861306
 91       0.002227295281
 92      -0.002429598616
 93       0.006304453493
 94       0.002951289243
 95       0.004234380665
 96       0.009162303218
 97      -0.009624375597
 98       0.000815632748
 99      -0.000438453794
100      -0.001355108715
101       0.000502127500
102      -0.001175183081
103       0.002510153932
104       0.000984467377
105      -0.029263503814
106       0.002591852122
107       0.005922012349
108      -0.001296359850
109      -0.039533397388
110      -0.060886313112
111      -0.039508574484
112       0.137556920606
113      -0.188502251429
114       0.086942663644
115       0.025459227389
116      -0.007987858616
117       0.013992152807
118       0.027763851962
119      -0.006905505129
120       0.014528818417
121       0.004224425646
122      -0.002497355047
123       0.002795461071
124      -0.000535520775
125       0.001367518459
126       0.000022342925
127       0.001649523069
128      -0.000093396527
129      -0.001669552523
130       0.005138442756
131       0.000561105307
132       0.006796304192
133      -0.000546513593
134      -0.000683217311
135      -0.000118801378
136       0.000213244109
137       0.001206736349
138       0.000235728514
139      -0.001524457147
140       0.000094487129
141       0.014636243398
142       0.003042681841
143       0.000895838557
144       0.000923155379
 Sym=     1a
 Ene= -8.07297104386219E-01
 Spin= Alpha
 Occup= 2.000000
  1      -0.068459648365
  2      -0.105436306582
  3      -0.068416773131
  4       0.238207393228
  5      -0.326424946272
  6       0.150560214461
  7      -0.017568923294
  8       0.036375913205
  9      -0.022152743542
 10      -0.020170061252
 11       0.039147910794
 12      -0.024374395311
 13      -0.002258471519
 14       0.006373694732
 15      -0.003535107872
 16      -0.000494461379
 17       0.001394582416
 18      -0.002211631214
 19      -0.000993887785
 20      -0.002037213965
 21      -0.001092639940
 22       0.004921913692
 23      -0.008309474183
 24      -0.004061830899
 25      -0.008738523230
 26       0.000934757238
 27      -0.000180247667
 28       0.000409207949
 29       0.000977772274
 30       0.001895325141
 31      -0.001862139356
 32      -0.000315634613
 33       0.025347474723
 34      -0.003136037511
 35       0.003813873933
 36      -0.002871147271
 37       0.000000000791
 38       0.000000001039
 39       0.000000000804
 40      -0.000000002312
 41       0.000000004472
 42       0.000000007105
 43       0.137443474569
 44      -0.043607290319
 45       0.075764952805
 46       0.056449609544
 47      -0.017910015748
 48       0.031117534903
 49      -0.010623798378
 50       0.003370655160
 51      -0.005856308426
 52       0.002882750890
 53      -0.000298067363
 54      -0.008534246618
 55      -0.010378215937
 56      -0.011841743729
 57       0.002094313047
 58      -0.000220285264
 59      -0.006211920657
 60      -0.007553333987
 61      -0.008622280333
 62      -0.001908070283
 63      -0.000512825780
 64      -0.000414163911
 65       0.000708753533
 66      -0.001086468998
 67      -0.000140065392
 68      -0.000520018309
 69       0.000000000176
 70      -0.000163772335
 71       0.000051959109
 72      -0.000090277913
 73       0.000017415111
 74       0.000026821443
 75       0.000017404198
 76      -0.000060597046
 77       0.000083036200
 78      -0.000038300503
 79       0.014616491304
 80      -0.004621762352
 81       0.008050922091
 82       0.014048972024
 83      -0.004440712624
 84       0.007737680147
 85       0.003653325402
 86      -0.001156228068
 87       0.002012711315
 88       0.000175382757
 89      -0.000018427744
 90      -0.000518908148
 91      -0.000630946004
 92      -0.000721022625
 93       0.000715452901
 94      -0.000074809374
 95      -0.002117138568
 96      -0.002574038330
 97      -0.002941301751
 98      -0.000281499253
 99      -0.000356023457
100      -0.000205307836
101      -0.000605923945
102       0.000103834874
103       0.000497735912
104      -0.001041891872
105      -0.000006442865
106      -0.000191100631
107       0.000062065701
108      -0.000105922169
109       0.068442236215
110       0.105409489717
111       0.068399371913
112      -0.238146807773
113       0.326341921785
114      -0.150521925071
115      -0.041255091556
116      -0.017728237580
117      -0.010267330465
118      -0.045353072553
119      -0.018375767477
120      -0.011738130531
121      -0.006608928841
122      -0.003563175557
123      -0.001351832860
124       0.001395749226