[Molden Format]
[Title]
 Molden file created by orca_2mkl for BaseName=/data01/Nikolayandreadi/heavy/cations/Pu_4+

[Atoms] AU
Pu   1  94          0.0415890928         1.5388172189        -3.6027401976 
[GTO]
  1 0
s   9 1.0 
 61522220.6225290000     17063.6754636881
 27964645.7375129983     -6251.6280422765
 12711202.6079610009      9671.6986576994
  5777819.3672550004       289.2210734849
  2626281.5305699999      4464.1627617163
  1193764.3320770001      2006.5541689788
   542620.1509440000      2788.3025657130
   246645.5231560000      2062.8458110195
   112111.6014350000      2113.6106705618
s   1 1.0 
    50959.8188340000      2417.3024864446
s   1 1.0 
    23163.5540150000      1338.1783156871
s   1 1.0 
    10528.8881890000       740.7931835960
s   1 1.0 
     4785.8582680000       410.0907438407
s   1 1.0 
     2175.3901220000       227.0193920667
s   1 1.0 
      988.8136920000       125.6741468865
s   1 1.0 
      449.4607690000        69.5711104117
s   1 1.0 
      204.3003500000        38.5134057612
s   1 1.0 
       92.8637950000        21.3203786259
s   1 1.0 
       42.2108160000        11.8026058245
s   1 1.0 
       19.1867350000         6.5337257345
s   1 1.0 
        8.7212430000         3.6169614730
s   1 1.0 
        3.9642010000         2.0022893726
s   1 1.0 
        1.8019100000         1.1084341915
s   1 1.0 
        0.8190500000         0.6136106705
s   1 1.0 
        0.3722950000         0.3396843160
s   1 1.0 
        0.1692250000         0.1880435685
s   1 1.0 
        0.0769210000         0.1040983350
s   1 1.0 
        0.0349640000         0.0576269887
s   1 1.0 
        0.0158930000         0.0319017498
p   8 1.0 
   879013.3813660000    139189.6694195126
   366255.5755690000     11873.5310695809
   152606.4898210000     40255.8773916045
    63586.0374250000     19887.9699123185
    26494.1822610000     19138.0697118639
    11039.2426090000     15284.2547358037
     4599.6844200000     14199.0747202623
     1916.5351750000     12759.1191870144
p   1 1.0 
      798.5563230000      6050.9286073116
p   1 1.0 
      332.7318010000      2025.6199998139
p   1 1.0 
      138.6382510000       678.1002843303
p   1 1.0 
       57.7659380000       227.0021001283
p   1 1.0 
       24.0691410000        75.9916416591
p   1 1.0 
       10.0288090000        25.4391026723
p   1 1.0 
        4.1786700000         8.5160397883
p   1 1.0 
        1.7411130000         2.8508461829
p   1 1.0 
        0.7254640000         0.9543549283
p   1 1.0 
        0.3022760000         0.3194807322
p   1 1.0 
        0.1259490000         0.1069506658
p   1 1.0 
        0.0524790000         0.0358032150
d   7 1.0 
    43223.8765000000     60764.0080375267
    17289.5506000000     29755.0800020834
     6915.8202400000     32871.2311092175
     2766.3280960000     30065.6700485816
     1106.5312380000     31905.5201083940
      442.6124950000     28787.6778141197
      177.0449980000     19499.0030796932
d   1 1.0 
       70.8179990000      4928.5761768021
d   1 1.0 
       28.3272000000       991.5770557751
d   1 1.0 
       11.3308800000       199.4947420861
d   1 1.0 
        4.5323520000        40.1362172392
d   1 1.0 
        1.8129410000         8.0749809665
d   1 1.0 
        0.7251760000         1.6245985936
d   1 1.0 
        0.2900710000         0.3268531162
d   1 1.0 
        0.1160280000         0.0657589689
d   1 1.0 
        0.0464110000         0.0132299043
f   6 1.0 
     4758.8680260000     68069.5976130275
     1830.3338560000     59148.9500505355
      703.9745600000     64844.9511990799
      270.7594460000     63667.3327460647
      104.1382490000     46445.9881466115
       40.0531730000     19036.1414891793
f   1 1.0 
       15.4050660000      2680.6684110836
f   1 1.0 
        5.9250260000       312.2864675901
f   1 1.0 
        2.2788560000        36.3800311270
f   1 1.0 
        0.8764830000         4.2381170555
f   1 1.0 
        0.3371090000         0.4937230016
f   1 1.0 
        0.1296570000         0.0575163091

[5D]
[7F]
[9G]
[MO]
 Sym=     1a
 Ene= -4.49001268659931E+03
 Spin= Alpha
 Occup= 1.000000
  1       0.089707894907
  2       0.067509863330
  3       0.114799970661
  4       0.180028463312
  5       0.264902001126
  6       0.299424020210
  7       0.188404665213
  8       0.030966556427
  9       0.000917849755
 10      -0.000656932109
 11       0.000477135990
 12      -0.000350292183
 13       0.000247975829
 14      -0.000166801331
 15       0.000110286437
 16      -0.000072490626
 17       0.000046749949
 18      -0.000028915598
 19       0.000016338281
 20      -0.000007482508
 21       0.000002015713
 22       0.000000000000
 23       0.000000000000
 24      -0.000000000000
 25      -0.000000000000
 26      -0.000000000000
 27       0.000000000000
 28       0.000000000000
 29       0.000000000000
 30      -0.000000000000
 31      -0.000000000000
 32      -0.000000000000
 33       0.000000000000
 34       0.000000000000
 35       0.000000000000
 36      -0.000000000000
 37      -0.000000000000
 38      -0.000000000000
 39       0.000000000000
 40       0.000000000000
 41       0.000000000000
 42      -0.000000000000
 43      -0.000000000000
 44      -0.000000000000
 45       0.000000000000
 46       0.000000000000
 47       0.000000000000
 48      -0.000000000000
 49      -0.000000000000
 50      -0.000000000000
 51       0.000000000000
 52      -0.000000000000
 53       0.000000000000
 54      -0.000000000000
 55      -0.000000000000
 56      -0.000000000000
 57       0.000000000000
 58       0.000000000000
 59       0.000000000000
 60       0.000000000000
 61      -0.000000000000
 62       0.000000000000
 63       0.000000000000
 64      -0.000000000000
 65      -0.000000000001
 66      -0.000000000000
 67       0.000000000001
 68      -0.000000000000
 69       0.000000000000
 70      -0.000000000001
 71      -0.000000000000
 72       0.000000000000
 73       0.000000000000
 74      -0.000000000000
 75      -0.000000000000
 76       0.000000000000
 77       0.000000000000
 78      -0.000000000000
 79       0.000000000000
 80      -0.000000000000
 81      -0.000000000000
 82      -0.000000000000
 83      -0.000000000000
 84      -0.000000000000
 85       0.000000000001
 86       0.000000000000
 87      -0.000000000000
 88       0.000000000000
 89       0.000000000000
 90      -0.000000000000
 91       0.000000000000
 92      -0.000000000000
 93      -0.000000000000
 94      -0.000000000000
 95       0.000000000000
 96      -0.000000000000
 97       0.000000000000
 98       0.000000000000
 99       0.000000000000
100      -0.000000000000
101       0.000000000000
102      -0.000000000000
103       0.000000000000
104      -0.000000000000
105       0.000000000000
106      -0.000000000000
107       0.000000000000
108      -0.000000000000
109       0.000000000000
110      -0.000000000000
111       0.000000000000
112       0.000000000000
113       0.000000000000
114      -0.000000000000
115      -0.000000000000
116       0.000000000000
117      -0.000000000001
118       0.000000000000
119      -0.000000000000
120      -0.000000000000
121       0.000000000000
122       0.000000000000
123      -0.000000000000
124       0.000000000000
125      -0.000000000000
126       0.000000000000
127       0.000000000000
128      -0.000000000000
129       0.000000000000
130      -0.000000000000
131      -0.000000000000
132       0.000000000000
133       0.000000000000
134      -0.000000000000
135       0.000000000000
136       0.000000000000
137      -0.000000000000
138       0.000000000000
139      -0.000000000000
140      -0.000000000000
141      -0.000000000000
142      -0.000000000000
143      -0.000000000000
144       0.000000000000
145      -0.000000000000
146      -0.000000000000
147      -0.000000000000
148       0.000000000000
149       0.000000000000
150       0.000000000000
151      -0.000000000000
152      -0.000000000000
153      -0.000000000000
154      -0.000000000000
155      -0.000000000000
156       0.000000000000
157      -0.000000000000
158       0.000000000000
159      -0.000000000000
 Sym=     1a
 Ene= -8.55711441252663E+02
 Spin= Alpha
 Occup= 1.000000
  1      -0.038294371338
  2      -0.031157130487
  3      -0.051668887571
  4      -0.088896125497
  5      -0.140007547327
  6      -0.175204951587
  7      -0.061930655157
  8       0.380732360350
  9       0.603127181315
 10       0.160419699060
 11      -0.001801569737
 12       0.001354040252
 13      -0.000659348577
 14       0.000300037520
 15      -0.000146311176
 16       0.000086627825
 17      -0.000053751928
 18       0.000032245121
 19      -0.000018020114
 20       0.000008211124
 21      -0.000002207005
 22       0.000000000000
 23       0.000000000000
 24      -0.000000000000
 25      -0.000000000000
 26       0.000000000000
 27       0.000000000000
 28       0.000000000000
 29       0.000000000001
 30      -0.000000000000
 31      -0.000000000000
 32      -0.000000000000
 33       0.000000000000
 34       0.000000000000
 35       0.000000000001
 36      -0.000000000000
 37      -0.000000000000
 38      -0.000000000001
 39      -0.000000000000
 40       0.000000000000
 41       0.000000000001
 42       0.000000000000
 43      -0.000000000000
 44      -0.000000000001
 45      -0.000000000000
 46      -0.000000000000
 47       0.000000000002
 48       0.000000000000
 49       0.000000000000
 50      -0.000000000005
 51       0.000000000000
 52      -0.000000000000
 53       0.000000000007
 54      -0.000000000000
 55       0.000000000000
 56      -0.000000000004
 57       0.000000000000
 58       0.000000000000
 59       0.000000000001
 60       0.000000000000
 61       0.000000000005
 62      -0.000000000023
 63       0.000000000038
 64      -0.000000000021
 65       0.000000000050
 66       0.000000000022
 67      -0.000000000026
 68       0.000000000014
 69       0.000000000004
 70       0.000000000059
 71      -0.000000000006
 72       0.000000000008
 73      -0.000000000008
 74       0.000000000001
 75      -0.000000000014
 76       0.000000000012
 77      -0.000000000009
 78       0.000000000009
 79       0.000000000007
 80       0.000000000009
 81      -0.000000000011
 82       0.000000000009
 83      -0.000000000008
 84      -0.000000000007
 85      -0.000000000009
 86       0.000000000004
 87      -0.000000000004
 88       0.000000000006
 89       0.000000000003
 90       0.000000000002
 91      -0.000000000002
 92       0.000000000004
 93      -0.000000000004
 94      -0.000000000006
 95      -0.000000000005
 96       0.000000000001
 97      -0.000000000002
 98       0.000000000002
 99       0.000000000005
100       0.000000000003
101      -0.000000000000
102       0.000000000001
103      -0.000000000001
104      -0.000000000002
105      -0.000000000002
106       0.000000000000
107      -0.000000000001
108       0.000000000001
109       0.000000000001
110       0.000000000001
111       0.000000000000
112       0.000000000000
113       0.000000000000
114      -0.000000000003
115      -0.000000000000
116       0.000000000000
117      -0.000000000000
118      -0.000000000000
119      -0.000000000000
120      -0.000000000000
121       0.000000000002
122       0.000000000000
123      -0.000000000000
124       0.000000000000
125       0.000000000000
126       0.000000000000
127       0.000000000000
128      -0.000000000002
129      -0.000000000000
130      -0.000000000000
131      -0.000000000000
132      -0.000000000000
133      -0.000000000000
134      -0.000000000000
135       0.000000000001
136       0.000000000000
137       0.000000000000
138       0.000000000000
139       0.000000000000
140       0.000000000000
141       0.000000000000
142      -0.000000000000
143      -0.000000000000
144      -0.000000000000
145      -0.000000000000
146       0.000000000000
147      -0.000000000000
148      -0.000000000000
149       0.000000000000
150       0.000000000000
151       0.000000000000
152       0.000000000000
153       0.000000000000
154      -0.000000000000
155       0.000000000000
156       0.000000000001
157      -0.000000000000
158      -0.000000000000
159      -0.000000000000
 Sym=     1a
 Ene= -7.13397741767872E+02
 Spin= Alpha
 Occup= 1.000000
  1       0.000000000000
  2       0.000000000000
  3       0.000000000000
  4      -0.000000000000
  5       0.000000000000
  6      -0.000000000000
  7       0.000000000000
  8      -0.000000000001
  9       0.000000000001
 10      -0.000000000003
 11       0.000000000002
 12      -0.000000000001
 13      -0.000000000000
 14      -0.000000000001
 15       0.000000000003
 16      -0.000000000004
 17       0.000000000005
 18      -0.000000000005
 19       0.000000000004
 20      -0.000000000002
 21       0.000000000001
 22       0.064752201502
 23       0.150444871891
 24       0.078811535170
 25       0.108697108650
 26       0.252546202392
 27       0.132297988370
 28       0.162369879126
 29       0.377249191532
 30       0.197624469030
 31       0.084576002082
 32       0.196503369747
 33       0.102939582068
 34       0.002694556207
 35       0.006260515506
 36       0.003279612207
 37       0.001556967045
 38       0.003617447803
 39       0.001895023811
 40      -0.001073137764
 41      -0.002493321780
 42      -0.001306143005
 43       0.000659028114
 44       0.001531181924
 45       0.000802119717
 46      -0.000395659037
 47      -0.000919271804
 48      -0.000481566578
 49       0.000234263313
 50       0.000544285959
 51       0.000285127778
 52      -0.000130974731
 53      -0.000304305894
 54      -0.000159412644
 55       0.000063312688
 56       0.000147100313
 57       0.000077059466
 58      -0.000019818435
 59      -0.000046046032
 60      -0.000024121517
 61      -0.000000000000
 62       0.000000000000
 63       0.000000000000
 64       0.000000000000
 65       0.000000000000
 66       0.000000000000
 67       0.000000000000
 68      -0.000000000000
 69      -0.000000000000
 70      -0.000000000000
 71      -0.000000000000
 72       0.000000000000
 73      -0.000000000000
 74       0.000000000000
 75      -0.000000000000
 76       0.000000000000
 77      -0.000000000000
 78       0.000000000000
 79      -0.000000000000
 80       0.000000000000
 81      -0.000000000000
 82       0.000000000000
 83      -0.000000000000
 84       0.000000000000
 85      -0.000000000000
 86       0.000000000000
 87      -0.000000000000
 88      -0.000000000000
 89       0.000000000000
 90       0.000000000000
 91      -0.000000000000
 92       0.000000000000
 93       0.000000000000
 94      -0.000000000000
 95      -0.000000000000
 96      -0.000000000000
 97      -0.000000000000
 98      -0.000000000000
 99       0.000000000000
100      -0.000000000000
101       0.000000000000
102       0.000000000000
103       0.000000000000
104      -0.000000000000
105       0.000000000000
106      -0.000000000000
107      -0.000000000000
108      -0.000000000000
109       0.000000000000
110      -0.000000000000
111      -0.000000000021
112      -0.000000000023
113       0.000000000026
114       0.000000000001
115       0.000000000018
116       0.000000000033
117      -0.000000000013
118       0.000000000001
119       0.000000000006
120      -0.000000000005
121       0.000000000009
122      -0.000000000006
123      -0.000000000017
124      -0.000000000003
125       0.000000000003
126      -0.000000000002
127       0.000000000001
128      -0.000000000007
129       0.000000000002
130       0.000000000009
131       0.000000000004
132       0.000000000001
133       0.000000000003
134      -0.000000000002
135       0.000000000003
136      -0.000000000002
137      -0.000000000005
138       0.000000000000
139      -0.000000000000
140      -0.000000000001
141       0.000000000001
142      -0.000000000002
143       0.000000000001
144       0.000000000003
145       0.000000000000
146       0.000000000000
147       0.000000000000
148      -0.000000000001
149       0.000000000001
150      -0.000000000001
151      -0.000000000001
152      -0.000000000000
153      -0.000000000000
154       0.000000000000
155       0.000000000000
156      -0.000000000000
157       0.000000000000
158       0.000000000000
159       0.000000000000
 Sym=     1a
 Ene= -7.13397741746563E+02
 Spin= Alpha
 Occup= 1.000000
  1      -0.000000000000
  2       0.000000000000
  3      -0.000000000000
  4       0.000000000001
  5      -0.000000000001
  6       0.000000000001
  7      -0.000000000001
  8       0.000000000001
  9       0.000000000001
 10      -0.000000000003
 11       0.000000000002
 12      -0.000000000002
 13       0.000000000002
 14      -0.000000000004
 15       0.000000000005
 16      -0.000000000006
 17       0.000000000006
 18      -0.000000000005
 19       0.000000000004
 20      -0.000000000002
 21       0.000000000001
 22       0.111686251846
 23       0.025823374599
 24      -0.141057079325
 25       0.187483550676
 26       0.043348737022
 27      -0.236787264706
 28       0.280059716777
 29       0.064753600875
 30      -0.353708760318
 31       0.145878849613
 32       0.033729166477
 33      -0.184241516947
 34       0.004647639387
 35       0.001074597203
 36      -0.005869857991
 37       0.002685496562
 38       0.000620923183
 39      -0.003391718276
 40      -0.001850975447
 41      -0.000427970597
 42       0.002337737958
 43       0.001136708535
 44       0.000262822413
 45      -0.001435635840
 46      -0.000682442819
 47      -0.000157790026
 48       0.000861909046
 49       0.000404063349
 50       0.000093424921
 51      -0.000510322398
 52      -0.000225908563
 53      -0.000052233121
 54       0.000285317142
 55       0.000109203340
 56       0.000025249293
 57      -0.000137921222
 58      -0.000034183343
 59      -0.000007903653
 60       0.000043172750
 61      -0.000000000001
 62       0.000000000000
 63      -0.000000000000
 64      -0.000000000000
 65       0.000000000000
 66       0.000000000000
 67      -0.000000000001
 68       0.000000000000
 69      -0.000000000000
 70       0.000000000000
 71      -0.000000000000
 72       0.000000000001
 73      -0.000000000000
 74       0.000000000001
 75      -0.000000000001
 76      -0.000000000000
 77      -0.000000000001
 78      -0.000000000000
 79      -0.000000000001
 80       0.000000000002
 81       0.000000000000
 82       0.000000000000
 83       0.000000000000
 84       0.000000000001
 85      -0.000000000001
 86      -0.000000000000
 87      -0.000000000000
 88      -0.000000000001
 89      -0.000000000000
 90       0.000000000001
 91       0.000000000000
 92       0.000000000000
 93       0.000000000001
 94       0.000000000000
 95      -0.000000000000
 96      -0.000000000000
 97      -0.000000000000
 98      -0.000000000000
 99      -0.000000000001
100      -0.000000000001
101       0.000000000000
102       0.000000000000
103       0.000000000000
104       0.000000000001
105       0.000000000001
106      -0.000000000000
107      -0.000000000000
108      -0.000000000000
109      -0.000000000000
110      -0.000000000000
111       0.000000000010
112       0.000000000038
113      -0.000000000023
114       0.000000000010
115       0.000000000010
116       0.000000000012
117      -0.000000000003
118      -0.000000000001
119      -0.000000000010
120       0.000000000016
121       0.000000000004
122       0.000000000007
123      -0.000000000003
124       0.000000000010
125      -0.000000000000
126       0.000000000002
127      -0.000000000010
128      -0.000000000005
129      -0.000000000007
130       0.000000000001
131      -0.000000000008
132      -0.000000000000
133      -0.000000000004
134       0.000000000004
135       0.000000000001
136       0.000000000002
137      -0.000000000002
138       0.000000000003
139       0.000000000000
140       0.000000000002
141      -0.000000000002
142      -0.000000000000
143      -0.000000000001
144       0.000000000001
145      -0.000000000002
146       0.000000000000
147      -0.000000000001
148       0.000000000001
149       0.000000000001
150       0.000000000000
151      -0.000000000001
152       0.000000000001
153      -0.000000000000
154       0.000000000001
155      -0.000000000000
156      -0.000000000001
157       0.000000000000
158       0.000000000000
159      -0.000000000000
 Sym=     1a
 Ene= -7.13397741703782E+02
 Spin= Alpha
 Occup= 1.000000
  1      -0.000000000000
  2      -0.000000000000
  3       0.000000000000
  4      -0.000000000000
  5       0.000000000001
  6      -0.000000000001
  7       0.000000000001
  8      -0.000000000001
  9       0.000000000003
 10      -0.000000000003
 11       0.000000000003
 12      -0.000000000004
 13       0.000000000005
 14      -0.000000000008
 15       0.000000000009
 16      -0.000000000010
 17       0.000000000010
 18      -0.000000000010
 19       0.000000000008
 20      -0.000000000004
 21       0.000000000001
 22       0.127949594399
 23      -0.098677550649
 24       0.083243062486
 25       0.214784218014
 26      -0.165646328552
 27       0.139737028204
 28       0.320840986070
 29      -0.247439648428
 30       0.208736779320
 31       0.167121192790
 32      -0.128887551705
 33       0.108727815527
 34       0.005324411561
 35      -0.004106303680
 36       0.003464022902
 37       0.003076548761
 38      -0.002372702302
 39       0.002001579929
 40      -0.002120507723
 41       0.001635382354
 42      -0.001379586683
 43       0.001302231872
 44      -0.001004309957
 45       0.000847222452
 46      -0.000781817645
 47       0.000602955020
 48      -0.000508644795
 49       0.000462901576
 50      -0.000356999911
 51       0.000301160352
 52      -0.000258804539
 53       0.000199595771
 54      -0.000168376325
 55       0.000125105127
 56      -0.000096483834
 57       0.000081392474
 58      -0.000039160994
 59       0.000030201823
 60      -0.000025477855
 61      -0.000000000000
 62       0.000000000000
 63      -0.000000000000
 64      -0.000000000000
 65      -0.000000000000
 66       0.000000000000
 67      -0.000000000000
 68       0.000000000000
 69      -0.000000000000
 70       0.000000000000
 71      -0.000000000000
 72       0.000000000000
 73      -0.000000000000
 74       0.000000000001
 75      -0.000000000001
 76       0.000000000000
 77      -0.000000000000
 78       0.000000000000
 79      -0.000000000001
 80       0.000000000002
 81       0.000000000000
 82       0.000000000000
 83      -0.000000000000
 84       0.000000000000
 85      -0.000000000001
 86       0.000000000000
 87      -0.000000000000
 88      -0.000000000000
 89       0.000000000000
 90       0.000000000001
 91      -0.000000000000
 92       0.000000000000
 93       0.000000000000
 94      -0.000000000000
 95      -0.000000000001
 96       0.000000000000
 97      -0.000000000000
 98      -0.000000000000
 99       0.000000000000
100       0.000000000001
101      -0.000000000000
102       0.000000000000
103       0.000000000000
104      -0.000000000000
105      -0.000000000000
106       0.000000000000
107      -0.000000000000
108      -0.000000000000
109       0.000000000000
110       0.000000000000
111      -0.000000000014
112       0.000000000005
113      -0.000000000017
114      -0.000000000015
115       0.000000000032
116      -0.000000000008
117      -0.000000000035
118      -0.000000000009
119      -0.000000000004
120      -0.000000000002
121       0.000000000003
122      -0.000000000018
123       0.000000000008
124       0.000000000024
125       0.000000000009
126       0.000000000003
127       0.000000000004
128      -0.000000000000
129       0.000000000010
130      -0.000000000005
131      -0.000000000014
132      -0.000000000002
133      -0.000000000001
134       0.000000000000
135       0.000000000001
136      -0.000000000005
137       0.000000000003
138       0.000000000006
139       0.000000000001
140       0.000000000000
141       0.000000000000
142      -0.000000000000
143       0.000000000002
144      -0.000000000002
145      -0.000000000003
146      -0.000000000000
147      -0.000000000000
148      -0.000000000000
149       0.000000000001
150      -0.000000000001
151       0.000000000001
152       0.000000000001
153      -0.000000000000
154       0.000000000000
155      -0.000000000000
156      -0.000000000001
157       0.000000000001
158      -0.000000000000
159      -0.000000000000
 Sym=     1a
 Ene= -2.22096220653834E+02
 Spin= Alpha
 Occup= 1.000000
  1       0.018801712901
  2       0.015530697005
  3       0.025519656342
  4       0.045089032037
  5       0.070848759088
  6       0.093006508696
  7       0.019389748452
  8      -0.307582021954
  9      -0.686467551832
 10       0.236143317679
 11       0.976580851506
 12       0.124420221123
 13       0.021161485545
 14      -0.016153340904
 15       0.011320061659
 16      -0.007723352348
 17       0.005071615403
 18      -0.003162212114
 19       0.001794186390
 20      -0.000823289511
 21       0.000221981619
 22      -0.000000000000
 23       0.000000000000
 24      -0.000000000000
 25       0.000000000001
 26       0.000000000000
 27      -0.000000000001
 28       0.000000000000
 29       0.000000000000
 30      -0.000000000001
 31       0.000000000001
 32       0.000000000000
 33      -0.000000000001
 34      -0.000000000004
 35      -0.000000000000
 36       0.000000000005
 37      -0.000000000002
 38      -0.000000000004
 39       0.000000000001
 40       0.000000000000
 41       0.000000000003
 42       0.000000000001
 43      -0.000000000001
 44      -0.000000000005
 45      -0.000000000002
 46      -0.000000000000
 47       0.000000000012
 48       0.000000000001
 49       0.000000000002
 50      -0.000000000047
 51       0.000000000000
 52      -0.000000000001
 53       0.000000000059
 54      -0.000000000001
 55       0.000000000000
 56      -0.000000000035
 57       0.000000000000
 58       0.000000000000
 59       0.000000000010
 60       0.000000000000
 61       0.000000000189
 62      -0.000000000308
 63       0.000000000309
 64      -0.000000000078
 65       0.000000000692
 66       0.000000000327
 67      -0.000000000586
 68       0.000000000651
 69      -0.000000000212
 70       0.000000001309
 71      -0.000000000177
 72       0.000000000073
 73       0.000000000179
 74      -0.000000000226
 75      -0.000000000230
 76       0.000000000069
 77      -0.000000000022
 78       0.000000000005
 79       0.000000000091
 80      -0.000000000029
 81      -0.000000000006
 82      -0.000000000044
 83       0.000000000032
 84      -0.000000000070
 85       0.000000000163
 86       0.000000000020
 87       0.000000000009
 88      -0.000000000022
 89       0.000000000062
 90      -0.000000000041
 91       0.000000000019
 92      -0.000000000028
 93       0.000000000031
 94      -0.000000000073
 95       0.000000000065
 96      -0.000000000018
 97       0.000000000023
 98      -0.000000000029
 99       0.000000000056
100      -0.000000000044
101       0.000000000012
102      -0.000000000018
103       0.000000000024
104      -0.000000000032
105       0.000000000032
106      -0.000000000005
107       0.000000000008
108      -0.000000000012
109       0.000000000013
110      -0.000000000014
111       0.000000000001
112       0.000000000003
113       0.000000000002
114      -0.000000000024
115      -0.000000000002
116       0.000000000002
117       0.000000000003
118      -0.000000000000
119      -0.000000000002
120      -0.000000000002
121       0.000000000018
122       0.000000000001
123      -0.000000000001
124      -0.000000000001
125       0.000000000001
126       0.000000000001
127       0.000000000001
128      -0.000000000011
129      -0.000000000002
130      -0.000000000001
131       0.000000000001
132      -0.000000000001
133      -0.000000000001
134      -0.000000000001
135       0.000000000006
136       0.000000000002
137       0.000000000001
138      -0.000000000000
139       0.000000000000
140       0.000000000001
141       0.000000000000
142      -0.000000000003
143      -0.000000000001
144      -0.000000000000
145       0.000000000000
146       0.000000000001
147      -0.000000000000
148      -0.000000000001
149      -0.000000000000
150      -0.000000000000
151      -0.000000000000
152      -0.000000000000
153      -0.000000000000
154      -0.000000000002
155       0.000000000000
156       0.000000000006
157      -0.000000000000
158      -0.000000000001
159       0.000000000000
 Sym=     1a
 Ene= -1.82054693413749E+02
 Spin= Alpha
 Occup= 1.000000
  1       0.000000000000
  2       0.000000000000
  3       0.000000000000
  4       0.000000000000
  5       0.000000000000
  6       0.000000000000
  7      -0.000000000000
  8       0.000000000000
  9      -0.000000000004
 10       0.000000000006
 11      -0.000000000005
 12       0.000000000011
 13      -0.000000000017
 14       0.000000000018
 15      -0.000000000016
 16       0.000000000013
 17      -0.000000000007
 18      -0.000000000008
 19       0.000000000013
 20      -0.000000000004
 21      -0.000000000001
 22      -0.037622774687
 23      -0.083635493379
 24      -0.044713570725
 25      -0.067818240935
 26      -0.150760067250
 27      -0.080600001949
 28      -0.102604957930
 29      -0.228090999346
 30      -0.121943000747
 31       0.047806816893
 32       0.106274636722
 33       0.056817007878
 34       0.273868460315
 35       0.608810061765
 36       0.325484679510
 37       0.091428731292
 38       0.203246229873
 39       0.108660382057
 40      -0.002734910207
 41      -0.006079710392
 42      -0.003250361158
 43       0.002052505511
 44       0.004562723277
 45       0.002439342938
 46      -0.001165796511
 47      -0.002591567698
 48      -0.001385515173
 49       0.000651218280
 50       0.001447659380
 51       0.000773953940
 52      -0.000358725124
 53      -0.000797446572
 54      -0.000426334346
 55       0.000172609025
 56       0.000383710156
 57       0.000205140786
 58      -0.000053946611
 59      -0.000119923399
 60      -0.000064113970
 61       0.000000000002
 62       0.000000000003
 63       0.000000000001
 64       0.000000000002