[Molden Format]
[Title]
 Molden file created by orca_2mkl for BaseName=/data01/nikolayandreadi/sCC/HCOOH

[Atoms] AU
C    1   6          2.5201916845        -0.3700386126        -0.5617248728 
O    2   8          3.3124347997         0.4888211282        -2.5117105936 
O    3   8          0.2761626875         0.2025389573         0.4845201116 
H    4   1          3.5145825837        -1.7367376856         0.6325442494 
H    5   1         -0.5236223247         1.4150212599        -0.6447802261 
[GTO]
  1 0
s   6 1.0 
    13575.3496820000         0.7684632837
     2035.2333680000         1.0861436461
      463.2256235900         1.7703924000
      131.2001959800         2.7178496271
       42.8530158900         3.6101953426
       15.5841857700         3.6946140086
s   1 1.0 
        6.2067138500         2.8025694579
s   1 1.0 
        2.5764896500         1.4493770955
s   1 1.0 
        0.5769633900         0.4718145012
s   1 1.0 
        0.2297283100        -0.2364944648
s   1 1.0 
        0.0951644400         0.1221141848
p   4 1.0 
       34.6972322400         1.3669717438
        7.9582622800         1.4530900682
        2.3780826900         1.2707683638
        0.8143320800         0.8025478511
p   1 1.0 
        0.2888754700         0.3018758836
p   1 1.0 
        0.1005682400         0.0807265050
d   1 1.0 
        1.0970000000         3.3522135855
d   1 1.0 
        0.3180000000         0.3838994974
f   1 1.0 
        0.7610000000         3.0840084332

  2 0
s   6 1.0 
    27032.3826310000         1.4645050749
     4052.3871392000         1.8244031008
      922.3272271000         2.8547160967
      261.2407098900         4.3654874290
       85.3546413500         5.8940772662
       31.0350352400         6.2963020147
s   1 1.0 
       12.2608607300         4.6698272139
s   1 1.0 
        4.9987076000         2.3826123703
s   1 1.0 
        1.1703108200         0.8019291632
s   1 1.0 
        0.4647474100        -0.4011648063
s   1 1.0 
        0.1850453600         0.2010799377
p   4 1.0 
       63.2749548000         3.0898340730
       14.6270493800         3.3923831935
        4.4501223500         2.9482801524
        1.5275799600         1.7113350234
p   1 1.0 
        0.5293511800         0.6436057935
p   1 1.0 
        0.1747842100         0.1610897223
d   1 1.0 
        2.3140000000        12.3767310624
d   1 1.0 
        0.6450000000         1.3234257612
f   1 1.0 
        1.4280000000        12.7097950062

  3 0
s   6 1.0 
    27032.3826310000         1.4645050749
     4052.3871392000         1.8244031008
      922.3272271000         2.8547160967
      261.2407098900         4.3654874290
       85.3546413500         5.8940772662
       31.0350352400         6.2963020147
s   1 1.0 
       12.2608607300         4.6698272139
s   1 1.0 
        4.9987076000         2.3826123703
s   1 1.0 
        1.1703108200         0.8019291632
s   1 1.0 
        0.4647474100        -0.4011648063
s   1 1.0 
        0.1850453600         0.2010799377
p   4 1.0 
       63.2749548000         3.0898340730
       14.6270493800         3.3923831935
        4.4501223500         2.9482801524
        1.5275799600         1.7113350234
p   1 1.0 
        0.5293511800         0.6436057935
p   1 1.0 
        0.1747842100         0.1610897223
d   1 1.0 
        2.3140000000        12.3767310624
d   1 1.0 
        0.6450000000         1.3234257612
f   1 1.0 
        1.4280000000        12.7097950062

  4 0
s   3 1.0 
       34.0613410000         0.2556300129
        5.1235746000         0.4613599287
        1.1646626000         0.6811215012
s   1 1.0 
        0.3272304100         0.3083545312
s   1 1.0 
        0.1030724100         0.1296483265
p   1 1.0 
        0.8000000000         1.0784563492

  5 0
s   3 1.0 
       34.0613410000         0.2556300129
        5.1235746000         0.4613599287
        1.1646626000         0.6811215012
s   1 1.0 
        0.3272304100         0.3083545312
s   1 1.0 
        0.1030724100         0.1296483265
p   1 1.0 
        0.8000000000         1.0784563492

[5D]
[9G]
[MO]
 Sym=     1a
 Ene= -2.06427497734061E+01
 Spin= Alpha
 Occup= 2.000000
  1       0.000013875199
  2      -0.000049421754
  3       0.000223215810
  4      -0.000073030548
  5       0.001930225466
  6       0.000605719115
  7       0.000167360215
  8      -0.000066808615
  9      -0.000042117314
 10       0.002877551298
 11      -0.000630147634
 12      -0.001496683478
 13      -0.000577956449
 14       0.000219601455
 15       0.000162009236
 16       0.000081684331
 17       0.000162948188
 18      -0.000019094883
 19      -0.000185148554
 20       0.000138375832
 21       0.000733232586
 22       0.000833187154
 23      -0.000718621264
 24      -0.001068059348
 25       0.000561438890
 26       0.000019686083
 27      -0.000016900698
 28       0.000108620775
 29      -0.000103452382
 30      -0.000034584477
 31      -0.000044453807
 32       0.000185649960
 33       0.000118015766
 34       0.000104591886
 35       0.000078609592
 36       0.000058680877
 37       0.000880966257
 38      -0.000076040047
 39       0.000011672979
 40       0.000001531572
 41      -0.000012160070
 42       0.000155668206
 43       0.000082278232
 44      -0.000254327952
 45       0.000186545789
 46      -0.000141408910
 47       0.000052775035
 48      -0.000005564891
 49       0.000026569880
 50       0.000030723475
 51      -0.000022080934
 52       0.000028011088
 53      -0.000003227320
 54      -0.000037393168
 55      -0.000106165973
 56       0.000056943986
 57      -0.000118255782
 58      -0.000013584706
 59      -0.000011407005
 60      -0.000027308458
 61       0.000014111142
 62      -0.000011103042
 63       0.000020803076
 64      -0.000010116755
 65      -0.436208993289
 66      -0.411800888069
 67      -0.251037056601
 68      -0.024478475063
 69      -0.012820542631
 70      -0.003223449690
 71      -0.000865034590
 72      -0.000560542643
 73       0.001567108440
 74       0.001886484236
 75       0.000378585722
 76      -0.002160543792
 77       0.000133649659
 78      -0.000212170638
 79       0.000202947234
 80      -0.000008357883
 81       0.000072182834
 82       0.000031269505
 83      -0.000052655518
 84       0.000034409735
 85      -0.000106591926
 86      -0.000357678147
 87      -0.000197561391
 88       0.000403036880
 89      -0.000432946670
 90       0.000048361326
 91       0.000002331919
 92       0.000031947602
 93      -0.000031082230
 94       0.000053032988
 95      -0.000054965128
 96       0.000016200013
 97      -0.000094372778
 98      -0.000454602086
 99       0.000192961715
100       0.000019175712
101      -0.000030293213
102       0.000028889429
103      -0.000507260927
104      -0.000918480130
105       0.000713431899
106      -0.000251769519
107       0.000330430898
108      -0.000279149468
 Sym=     1a
 Ene= -2.05804581834046E+01
 Spin= Alpha
 Occup= 2.000000
  1       0.000009690000
  2       0.000001831631
  3       0.000168427719
  4      -0.000863113173
  5       0.001942893781
  6       0.001096396230
  7      -0.000144279035
  8      -0.000238383070
  9       0.000477239325
 10      -0.002039314874
 11      -0.001317003826
 12       0.003687928476
 13      -0.000279190298
 14       0.001044611411
 15      -0.001319842453
 16      -0.000146334563
 17       0.000113134439
 18       0.000131493705
 19       0.000014560360
 20      -0.000062523186
 21      -0.001316655212
 22       0.000601533433
 23       0.001000168364
 24       0.000478205427
 25      -0.000835360598
 26      -0.000134997213
 27       0.000046787672
 28      -0.000007329769
 29       0.000091857026
 30      -0.000147708416
 31       0.000129620130
 32      -0.000057539146
 33      -0.436212020505
 34      -0.411882114448
 35      -0.250925436729
 36      -0.024642476677
 37      -0.013866743208
 38      -0.003859116585
 39       0.000821001449
 40       0.000743954412
 41      -0.001803166486
 42      -0.001379202656
 43      -0.001263437419
 44       0.003049493733
 45       0.000251118186
 46      -0.000047310419
 47      -0.000142075381
 48      -0.000134298924
 49       0.000143137187
 50       0.000174700375
 51      -0.000028785181
 52       0.000004801625
 53       0.000539173564
 54      -0.000437852056
 55      -0.000425066962
 56      -0.000053659863
 57       0.000284665117
 58       0.000010346889
 59      -0.000035911887
 60      -0.000054483609
 61      -0.000002117926
 62       0.000016020858
 63       0.000005922664
 64      -0.000000199880
 65      -0.000119253387
 66      -0.000116508467
 67      -0.000067782234
 68       0.000177803458
 69       0.001045101408
 70      -0.001031970956
 71       0.000019733882
 72      -0.000008871797
 73      -0.000003485113
 74      -0.000522320575
 75       0.000077852176
 76       0.000326082914
 77      -0.000217886273
 78      -0.000268542368
 79       0.000584442964
 80      -0.000001770408
 81       0.000008345440
 82       0.000027758710
 83      -0.000011538786
 84       0.000026718767
 85       0.000039098947
 86       0.000095938624
 87      -0.000108232811
 88      -0.000076272369
 89      -0.000028070686
 90      -0.000021552947
 91       0.000024197713
 92       0.000024939629
 93      -0.000012867810
 94      -0.000040850925
 95       0.000012471011
 96       0.000018493931
 97      -0.000149178337
 98      -0.000280980553
 99       0.000877288780
100      -0.000086730339
101      -0.000048547769
102       0.000145724435
103      -0.000094491475
104       0.000498146827
105      -0.000293052506
106       0.000050802427
107      -0.000050529177
108       0.000032276426
 Sym=     1a
 Ene= -1.14007862416136E+01
 Spin= Alpha
 Occup= 2.000000
  1       0.467649239623
  2       0.403719660932
  3       0.227867502157
  4       0.019764781633
  5       0.006942217866
  6       0.002518134944
  7      -0.000960154351
  8       0.000400269841
  9       0.000216396376
 10       0.000629477489
 11       0.000035743137
 12      -0.000586085701
 13       0.000592457459
 14      -0.000937609760
 15       0.000895312114
 16       0.000209247025
 17      -0.000474264041
 18      -0.000498005090
 19       0.000283769682
 20      -0.000286483790
 21       0.000375680417
 22      -0.000469743337
 23      -0.000454584602
 24       0.000121836719
 25       0.000005176181
 26      -0.000504286901
 27       0.000408989089
 28       0.000208368817
 29       0.000207932472
 30      -0.000641226853
 31       0.000404273652
 32      -0.000179792113
 33      -0.000170901058
 34      -0.000194248888
 35      -0.000168656710
 36       0.000484209322
 37       0.001535759876
 38       0.001291976853
 39      -0.000133169013
 40      -0.000136800087
 41       0.000316501191
 42       0.000267878202
 43       0.000221419384
 44      -0.000556585963
 45      -0.000517986047
 46      -0.000062468117
 47       0.000531481067
 48       0.000040450417
 49      -0.000025598238
 50      -0.000028723831
 51      -0.000010065899
 52       0.000026087694
 53      -0.000060851924
 54       0.000020097912
 55       0.000044710728
 56       0.000028043802
 57      -0.000041797814
 58       0.000048398029
 59      -0.000132415337
 60      -0.000178541894
 61      -0.000008038100
 62       0.000073738030
 63       0.000006824819
 64       0.000006463239
 65      -0.000082039808
 66      -0.000078188600
 67      -0.000138047953
 68       0.000749083315
 69       0.001192905533
 70       0.001499391540
 71       0.000378534800
 72      -0.000102962764
 73      -0.000166986038
 74      -0.000846670195
 75       0.000282745556
 76       0.000295365051
 77       0.000463660392
 78       0.000263539801
 79      -0.000784991765
 80      -0.000023887604
 81      -0.000048830311
 82       0.000042642199
 83       0.000045538577
 84      -0.000003988556
 85       0.000176103552
 86       0.000458358328
 87      -0.000230429328
 88      -0.000428121875
 89       0.000134205311
 90      -0.000067556649
 91       0.000001616077
 92       0.000020888588
 93       0.000106025388
 94      -0.000038418499
 95       0.000062757134
 96      -0.000053056873
 97      -0.000109771560
 98       0.000043400333
 99      -0.001520056668
100       0.000190776021
101      -0.000284323614
102       0.000262076093
103      -0.000104849545
104      -0.000540043410
105      -0.000082684496
106      -0.000003117456
107       0.000067426212
108      -0.000097802493
 Sym=     1a
 Ene= -1.47732858750954E+00
 Spin= Alpha
 Occup= 2.000000
  1       0.053689790005
  2       0.073419267021
  3       0.049319498789
  4      -0.193701245040
  5       0.116602398750
  6      -0.007841388691
  7       0.038937233077
  8      -0.043678582252
  9       0.032114772662
 10       0.020923285898
 11      -0.019214544242
 12       0.010915866013
 13      -0.000616867628
 14       0.000011381887
 15       0.000505043563
 16      -0.004487776607
 17       0.012988392520
 18       0.006655427264
 19      -0.007091680852
 20       0.002772337719
 21      -0.001516411674
 22       0.008665403160
 23       0.001826667151
 24      -0.005374597685
 25       0.001457186522
 26       0.004640688680
 27      -0.004235369689
 28      -0.002685645203
 29      -0.002575650370
 30       0.005531238587
 31      -0.003513330117
 32       0.002397634589
 33       0.047813987670
 34       0.072102069167
 35       0.047160586273
 36      -0.164232156047
 37       0.210914275415
 38      -0.061536562597
 39       0.028131640795
 40       0.019477982952
 41      -0.052826019491
 42       0.024016016435
 43       0.014485397454
 44      -0.041905222040
 45       0.003400892224
 46       0.000888369588
 47      -0.004201742384
 48      -0.002562119441
 49       0.002694853309
 50       0.002245077577
 51      -0.000245677457
 52      -0.000994659106
 53      -0.004862191598
 54       0.006582430874
 55       0.003847870638
 56      -0.001420495725
 57      -0.001974301737
 58      -0.000296648100
 59       0.001408673497
 60       0.000797121288
 61      -0.000531548198
 62      -0.000799125109
 63      -0.000045953204
 64      -0.000275346554
 65       0.074257341943
 66       0.111985397600
 67       0.073580362659
 68      -0.252900140122
 69       0.355929127967
 70      -0.104733451710
 71      -0.037234493228
 72      -0.009779861857
 73       0.046081613518
 74      -0.037797328927
 75      -0.010613211006
 76       0.047799285902
 77      -0.002776958132
 78      -0.000624452100
 79       0.003280485054
 80       0.000295859331
 81       0.001568779247
 82       0.001345800438
 83      -0.001737812886
 84       0.002118661775
 85       0.000390989721
 86       0.006246546609
 87       0.003805391455
 88      -0.005825329332
 89       0.005725240960
 90      -0.001872684732
 91       0.000478668786
 92      -0.001330041138
 93       0.000824175600
 94      -0.002285289296
 95       0.002084979462
 96      -0.000916183508
 97      -0.014666065162
 98      -0.015602137877
 99       0.002436803959
100       0.001722916586
101      -0.001455635001
102       0.000710180883
103      -0.059662878075
104      -0.042912589601
105       0.000368367831
106      -0.006208309797
107       0.008035749813
108      -0.006716238021
 Sym=     1a
 Ene= -1.37758425181360E+00
 Spin= Alpha
 Occup= 2.000000
  1      -0.023764233734
  2      -0.033175535016
  3      -0.020815818685
  4       0.081021677594
  5      -0.057999912527
  6       0.002931868319
  7       0.096083408649
  8       0.032209213174
  9      -0.129303289539
 10       0.040305827719
 11       0.012062727355
 12      -0.052083226446
 13       0.000744076401
 14      -0.001682467684
 15       0.001876576516
 16       0.013926340967
 17      -0.004136228253
 18      -0.012280031940
 19      -0.006230416196
 20       0.007637969002
 21       0.007461866528
 22      -0.000660046494
 23      -0.008874173082
 24      -0.003875943991
 25       0.002159873245
 26      -0.001807081825
 27       0.003294398048
 28       0.003382743204
 29      -0.000214302894
 30      -0.002958076714
 31       0.000645432979
 32       0.000039396938
 33      -0.076872480307
 34      -0.115975681893
 35      -0.076494305796
 36       0.268968239782
 37      -0.345747760458
 38       0.124353293267
 39      -0.023030751535
 40      -0.033366596275
 41       0.069199069476
 42      -0.019487033710
 43      -0.028773196135
 44       0.059356884189
 45      -0.003158431248
 46      -0.003111964937
 47       0.007309128643
 48       0.003707406586
 49      -0.002885883483
 50      -0.003664758314
 51      -0.000269719943
 52       0.001249275734
 53       0.008845042757
 54      -0.006390986216
 55      -0.008722961443
 56      -0.001005238334
 57       0.003109172177
 58       0.001157036957
 59      -0.001371244954
 60      -0.001873290902
 61      -0.000566436799
 62       0.001457491428
 63      -0.000568552637
 64       0.000093276941
 65       0.058514757909
 66       0.088381130320
 67       0.058268273074
 68      -0.201422345727
 69       0.289397993260
 70      -0.101120830797
 71      -0.008318711387
 72      -0.009252458460
 73       0.020823085144
 74      -0.016907385170
 75      -0.008132823611
 76       0.026424075498
 77      -0.001910126624
 78       0.000916280148
 79       0.000251561845
 80       0.000412435257
 81      -0.000023973921
 82       0.001300493443
 83      -0.000680275500
 84       0.001897539935
 85       0.002040498718
 86       0.002785105434
 87       0.001906528028
 88      -0.004305630684
 89       0.005537131317
 90      -0.001607612020
 91       0.000896610716
 92      -0.000691750645
 93       0.000342500832
 94      -0.002196870279
 95       0.001631124016
 96      -0.000647740153
 97       0.003277954549
 98      -0.001201031611
 99      -0.000873752737
100       0.001918239263
101      -0.000441754762
102      -0.000965493892
103      -0.049089239861
104      -0.038603108575
105       0.000094910768
106      -0.004327878697
107       0.006889803598
108      -0.006600639670
 Sym=     1a
 Ene= -8.95466789348998E-01
 Spin= Alpha
 Occup= 2.000000
  1      -0.064038823061
  2      -0.089807751592
  3      -0.060276040244
  4       0.245069305437
  5      -0.260414341551
  6       0.033651882444
  7      -0.012686705075
  8      -0.073721799581
  9       0.120556107232
 10       0.000582339713
 11      -0.053870587672
 12       0.079755041644
 13       0.002645657062
 14      -0.007963098601
 15       0.009623473419
 16       0.000325818423
 17      -0.004305486838
 18      -0.005053455946
 19       0.004107182794
 20      -0.005469809150
 21       0.003916540194
 22      -0.000006823295
 23      -0.008314815109
 24      -0.001346436764
 25      -0.002416928318
 26      -0.003679249989
 27       0.000496169651
 28       0.000282197443
 29       0.002377838038
 30      -0.004101312541
 31       0.003496653435
 32      -0.000251664816
 33       0.025873550007
 34       0.039591591665
 35       0.025812446517
 36      -0.094563628120
 37       0.140687515724
 38      -0.093974594364
 39      -0.000578368651
 40      -0.036532118882
 41       0.054910199252
 42       0.005291861585
 43      -0.028855866418
 44       0.038506738913
 45       0.001079379311
 46      -0.009974177098
 47       0.013944485748
 48       0.001147046963
 49      -0.000071398087
 50      -0.001288813327
 51      -0.000636742418
 52       0.000413352281
 53       0.001405887579
 54       0.002082190182
 55      -0.002037104067
 56      -0.002229383914
 57       0.000529577184
 58      -0.000027783268
 59       0.000508477707
 60      -0.000317212941
 61      -0.000468142434
 62      -0.000319871207
 63       0.000038546665
 64      -0.000250307029
 65       0.016693875948
 66       0.025435731640
 67       0.016919426530
 68      -0.062524391450
 69       0.083577754153
 70      -0.058957958033
 71       0.203879386693
 72      -0.137032214034
 73       0.031580937801
 74       0.182284905616
 75      -0.123009157253
 76       0.028967617766
 77       0.052626062924
 78      -0.034068657277
 79       0.006211171977
 80      -0.002540360865
 81      -0.005367813151
 82       0.004986618096
 83       0.004853759489
 84      -0.000014726106
 85      -0.007264322313
 86      -0.015175882223
 87       0.014323259474
 88       0.013738012360
 89       0.000059190892
 90      -0.000445548025
 91      -0.001050891057
 92      -0.000410646428
 93      -0.001721963564
 94      -0.001668605489
 95       0.000589616240
 96       0.003082851654
 97       0.103199770170
 98       0.131468570028
 99       0.022119017166
100      -0.010471240042
101       0.011880808699
102      -0.008835597419
103      -0.100489403470
104      -0.118505451440
105      -0.020567214552
106      -0.002990889463
107       0.009710379434
108      -0.011933898510
 Sym=     1a
 Ene= -7.24145816406833E-01
 Spin= Alpha
 Occup= 2.000000
  1      -0.005203684844
  2      -0.007253962145
  3      -0.005009413914
  4       0.020676949534
  5      -0.017053070837
  6      -0.029367900244
  7      -0.207351667518
  8       0.159255249350
  9      -0.061743893193
 10      -0.154150403739
 11       0.121392881321
 12      -0.050368639541
 13      -0.025229542547
 14       0.030960874870
 15      -0.024767746733
 16      -0.002150406566
 17      -0.004881251566
 18       0.002326215884
 19       0.004836087952
 20      -0.001965143337
 21      -0.003653753058
 22      -0.000914162613
 23      -0.001175237373
 24       0.004199640374
 25      -0.006802067967
 26      -0.002238424769
 27      -0.000517287561
 28       0.003071233457
 29       0.005357993177
 30      -0.000222994389
 31       0.001634244269
 32      -0.001567020627
 33       0.008230985333
 34       0.012700202071
 35       0.008200984323
 36      -0.030932099565
 37       0.050547769095
 38      -0.047389638349
 39      -0.173557903171
 40       0.077851286886
 41       0.030920731315
 42      -0.149040256681
 43       0.070090581041
 44       0.021730710595
 45      -0.067332917876
 46       0.031203967236
 47       0.010504371473
 48       0.000086147789
 49      -0.005075414772
 50       0.002161612798
 51       0.003034532625
 52       0.001156573281
 53      -0.000313355741
 54      -0.013537820652
 55       0.005836607810
 56       0.008557672843
 57       0.002347174106
 58      -0.000598038403
 59      -0.002702129522
 60       0.001391600881
 61       0.002750350683
 62       0.000747733232
 63       0.000588927918
 64       0.001400762048
 65       0.018886706518
 66       0.029353292964
 67       0.018557162087
 68      -0.073839099103
 69       0.107451977748
 70      -0.101507462859
 71       0.207238696259
 72      -0.000484903216
 73      -0.174668944934
 74       0.186472618972
 75      -0.001817231659
 76      -0.155109329571
 77       0.081244244089
 78      -0.001366949428
 79      -0.066722763170
 80       0.001127415173
 81      -0.006457987247
 82       0.000481317438
 83       0.003537640960
 84       0.000736989608
 85       0.006535312054
 86      -0.023222965783
 87       0.001511346011
 88       0.010577218691
 89       0.006124090049
 90       0.000889856099
 91       0.001314168038
 92       0.000766666598
 93      -0.002687524672
 94      -0.000306868149
 95      -0.001224872582
 96       0.001262733559
 97      -0.098496822160
 98      -0.143175541674
 99      -0.022023379393
100       0.005580284908
101      -0.011096785357
102       0.011807082591
103      -0.016756738142
104      -0.011768388836
105      -0.013911349861
106       0.008331925461
107       0.000593218072
108      -0.007935208588
 Sym=     1a
 Ene= -7.13015077302011E-01
 Spin= Alpha
 Occup= 2.000000
  1      -0.034506091893
  2      -0.049297013877
  3      -0.032210901841
  4       0.134962144088
  5      -0.157596032172
  6       0.000780870245
  7       0.123072187022
  8       0.008931572216
  9      -0.117469185081
 10       0.079794040834
 11       0.003341605321
 12      -0.072512594148
 13       0.011430608306
 14      -0.013388802185
 15       0.010270973254
 16       0.004812666667
 17       0.003513062055
 18      -0.009322940662
 19      -0.004423612848
 20      -0.001310714886
 21      -0.005080917169
 22       0.011088331830
 23      -0.003290293864
 24      -0.002656642492
 25      -0.008386955637
 26      -0.001212243414
 27       0.006320524781
 28       0.001316526821
 29      -0.002998449993
 30      -0.003719100162
 31       0.000180875085
 32      -0.002119932123
 33       0.038769791350
 34       0.060029128968
 35       0.038140427578
 36      -0.145040759377
 37       0.223316277696
 38      -0.186070039306
 39      -0.068115649568
 40      -0.122787710600
 41       0.240568652107
 42      -0.052865555422
 43      -0.101170502071
 44       0.195458071780
 45      -0.021962115744
 46      -0.042623629353
 47       0.082084712371
 48       0.005317741458
 49      -0.003686157125
 50      -0.005318417417
 51      -0.000698136893
 52       0.001830096354
 53       0.011630945251
 54      -0.007758365843
 55      -0.010546246196
 56      -0.002023568143
 57       0.005146412083
 58       0.001325754039
 59      -0.001512029040
 60      -0.001954266375
 61      -0.000569971470
 62       0.001711717504
 63      -0.000699374680
 64       0.000079686431
 65       0.016321906003
 66       0.025241594522
 67       0.016238751258
 68      -0.061975101814
 69       0.095625308587
 70      -0.073890855653
 71      -0.104535241788
 72       0.156910533606
 73      -0.145273489493
 74      -0.099660665784
 75       0.141654377107
 76      -0.126672355460
 77      -0.033485317500
 78       0.062815894523
 79      -0.065235467172
 80       0.002104679286
 81       0.002567468358
 82      -0.004502800135
 83      -0.002570107427
 84      -0.000768635791
 85       0.008999976389
 86       0.007528947285
 87      -0.015336450150
 88      -0.009500379228
 89      -0.000159930632
 90       0.000460779735
 91       0.000848671465
 92       0.001213540574
 93       0.001220408306
 94       0.001375867118
 95      -0.000778699555
 96      -0.001811883871
 97       0.040045423371
 98       0.057687950839
 99       0.008797777182
100       0.000304206476
101       0.003531083940
102      -0.005517425627
103       0.091904992420
104       0.123254596293
105       0.025509393502
106       0.005184396429
107      -0.007150811741
108       0.006264532929
 Sym=     1a
 Ene= -6.37712297082769E-01
 Spin= Alpha
 Occup= 2.000000
  1       0.000000603461
  2       0.000000865469
  3       0.000000555310
  4      -0.000002241660
  5       0.000003376783
  6      -0.000001208004
  7      -0.085328473761
  8      -0.150186226320
  9      -0.100817586960
 10      -0.077262981971
 11      -0.135990725337
 12      -0.091288812188
 13      -0.022037401034
 14      -0.038789108099
 15      -0.026038138290
 16       0.003926666726
 17       0.005737559128
 18      -0.000313863027
 19       0.008730512363
 20       0.002564144225
 21       0.005760122140
 22       0.009836654827
 23      -0.001267412956
 24       0.015210799283
 25       0.005194361650
 26      -0.004602602555
 27       0.003512273707
 28      -0.000834730911
 29      -0.001069183801
 30       0.006631110519
 31       0.003429476524
 32       0.002756846567
 33      -0.000000097068
 34      -0.000000147687
 35      -0.000000104901
 36       0.000000460983
 37      -0.000000235341
 38       0.000000637933
 39      -0.080418816255
 40      -0.141542173307
 41      -0.095014756945
 42      -0.072561710039
 43      -0.127713356744
 44      -0.085731807779
 45      -0.035950512275
 46      -0.063274711157
 47      -0.042475263343
 48      -0.004781468198
 49      -0.001066689479
 50      -0.002980756962
 51      -0.000611087634
 52       0.002849445266
 53      -0.014076409714
 54      -0.003352522597
 55      -0.008654626501
 56      -0.002158174824
 57       0.008174506910
 58      -0.003103019749
 59       0.000579395369
 60      -0.000605512074
 61      -0.000303979068
 62       0.001630658327
 63      -0.001135830465
 64       0.000598464019
 65       0.000000020812
 66       0.000000030194
 67       0.000000024442
 68      -0.000000098422
 69      -0.000000125863
 70      -0.000000499646
 71      -0.144717014120
 72      -0.254723012058
 73      -0.170995679953
 74      -0.133228742428
 75      -0.234502067421
 76      -0.157421269729
 77      -0.075541341355
 78      -0.132963826574
 79      -0.089258473946
 80       0.003417073703
 81      -0.000305187932
 82       0.002736472249
 83      -0.001369910069
 84      -0.003113143260
 85       0.015311292300
 86       0.000217930284
 87       0.011360907652
 88      -0.003454640401
 89      -0.012349918055
 90      -0.000683262396
 91       0.001101951885
 92       0.000489894534
 93      -0.001245411572
 94       0.003088903571
 95       0.003600483499
 96       0.000629775858
 97       0.000000313023
 98       0.000000484949
 99      -0.000000451022
100      -0.002584426894
101      -0.004548631401
102      -0.003053617553
103       0.000000168419
104       0.000000480814
105       0.000000148371
106      -0.007037837961
107      -0.012387737098
108      -0.008315806672
 Sym=     1a
 Ene= -6.05391787029860E-01
 Spin= Alpha
 Occup= 2.000000
  1       0.002428619625
  2       0.003270261337
  3       0.002313600159
  4      -0.004092744931
  5       0.040159498847
  6      -0.018342335396
  7       0.024216568849
  8       0.107424657146
  9      -0.180524760555
 10       0.001103891735
 11       0.075937471278
 12      -0.114057303807
 13      -0.015232335113
 14      -0.000506152503
 15       0.013645297926
 16       0.014191435362
 17      -0.014293166850
 18      -0.004446624458
 19      -0.001134714041
 20       0.013568258621
 21       0.009699277408
 22      -0.019217978512
 23       0.003906630946
 24       0.004270369431
 25       0.014085202239
 26      -0.001627439460
 27      -0.001059980963
 28       0.004527418804
 29       0.003072060224
 30      -0.000698691242
 31       0.000713917092
 32       0.001988435130
 33       0.013463912348
 34       0.021251731803
 35       0.012711816973
 36      -0.050087917903
 37       0.092811005010