[Molden Format]
[Title]
 Molden file created by orca_2mkl for BaseName=/home/nikolayandreadi/CCact/Cm_OH_3

[Atoms] AU
Cm   1  96         -0.1592358829        -0.2068985555         0.3759496760 
O    2   8         -1.1820784988        -1.7379452206        -2.8004607469 
O    3   8         -1.1939044050         3.2962587440         0.0600725041 
O    4   8          3.4856546561        -0.0227560821         0.0557336929 
H    5   1         -1.6506436526         5.0164103033        -0.1968584405 
H    6   1         -1.6332865181        -2.4012617703        -4.4110081904 
H    7   1          5.2587922464         0.1239906008        -0.2082497097 
[GTO]
  1 0
s   9 1.0 
 64183659.7122879997     18341.7117038968
 29174390.7783129998     -6758.1714140571
 13261086.7174149994     10363.5572157870
  6027766.6897339998       244.9966118343
  2739893.9498790000      4735.4899330975
  1245406.3408540001      2073.6914683036
   566093.7912970000      2911.1694935105
   257315.3596810000      2119.4045241260
   116961.5271280000      2167.8378182398
s   1 1.0 
    53164.3305130000      2495.3148673636
s   1 1.0 
    24165.6047780000      1381.3646678584
s   1 1.0 
    10984.3658080000       764.7004274204
s   1 1.0 
     4992.8935490000       423.3253950261
s   1 1.0 
     2269.4970680000       234.3458741054
s   1 1.0 
     1031.5895760000       129.7299650246
s   1 1.0 
      468.9043530000        71.8163436899
s   1 1.0 
      213.1383420000        39.7563293323
s   1 1.0 
       96.8810650000        22.0084405283
s   1 1.0 
       44.0368480000        12.1835054485
s   1 1.0 
       20.0167490000         6.7445852707
s   1 1.0 
        9.0985220000         3.7336897659
s   1 1.0 
        4.1356920000         2.0669084135
s   1 1.0 
        1.8798600000         1.1442060044
s   1 1.0 
        0.8544820000         0.6334134502
s   1 1.0 
        0.3884010000         0.3506471770
s   1 1.0 
        0.1765460000         0.1941125004
s   1 1.0 
        0.0802480000         0.1074572582
s   1 1.0 
        0.0364760000         0.0594861001
s   1 1.0 
        0.0165800000         0.0329305123
p   8 1.0 
   919065.4160050000    155084.3037269538
   382943.9233360000     13033.8591220902
   159559.9680560000     44494.9241943929
    66483.3200240000     21741.9357752702
    27701.3833430000     20810.8542073269
    11542.2430600000     16433.3243630285
     4809.2679420000     15112.5581166837
     2003.8616420000     13426.4666313791
p   1 1.0 
      834.9423510000      6397.5059864314
p   1 1.0 
      347.8926460000      2141.6408813544
p   1 1.0 
      144.9552690000       716.9396436587
p   1 1.0 
       60.3980290000       240.0040364015
p   1 1.0 
       25.1658450000        80.3441914649
p   1 1.0 
       10.4857690000        26.8961702682
p   1 1.0 
        4.3690700000         9.0038104076
p   1 1.0 
        1.8204460000         3.0141324951
p   1 1.0 
        0.7585190000         1.0090162666
p   1 1.0 
        0.3160500000         0.3377806999
p   1 1.0 
        0.1316870000         0.1130755524
p   1 1.0 
        0.0548700000         0.0378537394
d   7 1.0 
    45453.5554980000     69158.5304221611
    18181.4221990000     33549.0608196543
     7272.5688800000     36764.8300380107
     2909.0275520000     33296.4812113045
     1163.6110210000     35048.2136713992
      465.4444080000     31458.4333595288
      186.1777630000     21284.8094929165
d   1 1.0 
       74.4711050000      5382.0624155238
d   1 1.0 
       29.7884420000      1082.8136323072
d   1 1.0 
       11.9153770000       217.8505758998
d   1 1.0 
        4.7661510000        43.8292187085
d   1 1.0 
        1.9064600000         8.8179687304
d   1 1.0 
        0.7625840000         1.7740813862
d   1 1.0 
        0.3050340000         0.3569270978
d   1 1.0 
        0.1220130000         0.0718093124
d   1 1.0 
        0.0488050000         0.0144471652
f   6 1.0 
     5137.9626210000     79478.5378028876
     1976.1394700000     69378.2233604487
      760.0536420000     74836.3018841376
      292.3283240000     73855.3374665989
      112.4339710000     54388.1326524370
       43.2438350000     22700.0167896505
f   1 1.0 
       16.6322440000      3185.2203837389
f   1 1.0 
        6.3970170000       371.0645496036
f   1 1.0 
        2.4603910000        43.2274255115
f   1 1.0 
        0.9463040000         5.0358072630
f   1 1.0 
        0.3639630000         0.5866497101
f   1 1.0 
        0.1399860000         0.0683424334

  2 0
s   6 1.0 
    27032.3826310000         1.4645050749
     4052.3871392000         1.8244031008
      922.3272271000         2.8547160967
      261.2407098900         4.3654874290
       85.3546413500         5.8940772662
       31.0350352400         6.2963020147
s   1 1.0 
       12.2608607300         4.6698272139
s   1 1.0 
        4.9987076000         2.3826123703
s   1 1.0 
        1.1703108200         0.8019291632
s   1 1.0 
        0.4647474100        -0.4011648063
s   1 1.0 
        0.1850453600         0.2010799377
p   4 1.0 
       63.2749548000         3.0898340730
       14.6270493800         3.3923831935
        4.4501223500         2.9482801524
        1.5275799600         1.7113350234
p   1 1.0 
        0.5293511800         0.6436057935
p   1 1.0 
        0.1747842100         0.1610897223
d   1 1.0 
        2.3140000000        12.3767310624
d   1 1.0 
        0.6450000000         1.3234257612
f   1 1.0 
        1.4280000000        12.7097950062

  3 0
s   6 1.0 
    27032.3826310000         1.4645050749
     4052.3871392000         1.8244031008
      922.3272271000         2.8547160967
      261.2407098900         4.3654874290
       85.3546413500         5.8940772662
       31.0350352400         6.2963020147
s   1 1.0 
       12.2608607300         4.6698272139
s   1 1.0 
        4.9987076000         2.3826123703
s   1 1.0 
        1.1703108200         0.8019291632
s   1 1.0 
        0.4647474100        -0.4011648063
s   1 1.0 
        0.1850453600         0.2010799377
p   4 1.0 
       63.2749548000         3.0898340730
       14.6270493800         3.3923831935
        4.4501223500         2.9482801524
        1.5275799600         1.7113350234
p   1 1.0 
        0.5293511800         0.6436057935
p   1 1.0 
        0.1747842100         0.1610897223
d   1 1.0 
        2.3140000000        12.3767310624
d   1 1.0 
        0.6450000000         1.3234257612
f   1 1.0 
        1.4280000000        12.7097950062

  4 0
s   6 1.0 
    27032.3826310000         1.4645050749
     4052.3871392000         1.8244031008
      922.3272271000         2.8547160967
      261.2407098900         4.3654874290
       85.3546413500         5.8940772662
       31.0350352400         6.2963020147
s   1 1.0 
       12.2608607300         4.6698272139
s   1 1.0 
        4.9987076000         2.3826123703
s   1 1.0 
        1.1703108200         0.8019291632
s   1 1.0 
        0.4647474100        -0.4011648063
s   1 1.0 
        0.1850453600         0.2010799377
p   4 1.0 
       63.2749548000         3.0898340730
       14.6270493800         3.3923831935
        4.4501223500         2.9482801524
        1.5275799600         1.7113350234
p   1 1.0 
        0.5293511800         0.6436057935
p   1 1.0 
        0.1747842100         0.1610897223
d   1 1.0 
        2.3140000000        12.3767310624
d   1 1.0 
        0.6450000000         1.3234257612
f   1 1.0 
        1.4280000000        12.7097950062

  5 0
s   3 1.0 
       34.0613410000         0.2556300129
        5.1235746000         0.4613599287
        1.1646626000         0.6811215012
s   1 1.0 
        0.3272304100         0.3083545312
s   1 1.0 
        0.1030724100         0.1296483265
p   1 1.0 
        0.8000000000         1.0784563492

  6 0
s   3 1.0 
       34.0613410000         0.2556300129
        5.1235746000         0.4613599287
        1.1646626000         0.6811215012
s   1 1.0 
        0.3272304100         0.3083545312
s   1 1.0 
        0.1030724100         0.1296483265
p   1 1.0 
        0.8000000000         1.0784563492

  7 0
s   3 1.0 
       34.0613410000         0.2556300129
        5.1235746000         0.4613599287
        1.1646626000         0.6811215012
s   1 1.0 
        0.3272304100         0.3083545312
s   1 1.0 
        0.1030724100         0.1296483265
p   1 1.0 
        0.8000000000         1.0784563492

[5D]
[9G]
[MO]
 Sym=     1a
 Ene= -4.72599768283977E+03
 Spin= Alpha
 Occup= 1.000000
  1      -0.094758805894
  2      -0.069941015507
  3      -0.117991623167
  4      -0.182508611946
  5      -0.265284267167
  6      -0.295462030605
  7      -0.183765350834
  8      -0.029690386715
  9      -0.000973088505
 10       0.000705905950
 11      -0.000510718123
 12       0.000372389122
 13      -0.000263785777
 14       0.000179519875
 15      -0.000121889253
 16       0.000084451519
 17      -0.000059782807
 18       0.000036813638
 19      -0.000001265721
 20       0.000002786177
 21      -0.000000722060
 22       0.000000076215
 23       0.000000103464
 24      -0.000000181844
 25      -0.000000015976
 26      -0.000000022114
 27       0.000000038464
 28      -0.000000001415
 29      -0.000000002078
 30       0.000000003487
 31       0.000000000253
 32       0.000000000432
 33      -0.000000000736
 34      -0.000000003370
 35      -0.000000004830
 36       0.000000008377
 37       0.000000010914
 38       0.000000015269
 39      -0.000000026599
 40      -0.000000019133
 41      -0.000000026741
 42       0.000000046563
 43       0.000000040324
 44       0.000000055939
 45      -0.000000097318
 46      -0.000000094759
 47      -0.000000130128
 48       0.000000225797
 49       0.000000239884
 50       0.000000326352
 51      -0.000000564423
 52      -0.000000618362
 53      -0.000000841443
 54       0.000001461735
 55       0.000002523885
 56       0.000003415528
 57      -0.000005938308
 58      -0.000000164518
 59      -0.000000201342
 60       0.000000353505
 61      -0.000000004706
 62       0.000000004384
 63       0.000000006332
 64       0.000000000621
 65      -0.000000002512
 66      -0.000000005079
 67       0.000000004118
 68       0.000000006550
 69       0.000000000773
 70      -0.000000002479
 71       0.000000010437
 72      -0.000000008191
 73      -0.000000013265
 74      -0.000000001708
 75       0.000000004987
 76      -0.000000022766
 77       0.000000018155
 78       0.000000028972
 79       0.000000003759
 80      -0.000000010986
 81       0.000000041422
 82      -0.000000033018
 83      -0.000000052659
 84      -0.000000006906
 85       0.000000019981
 86      -0.000000066887
 87       0.000000052934
 88       0.000000084922
 89       0.000000011329
 90      -0.000000032101
 91       0.000000078666
 92      -0.000000061203
 93      -0.000000100343
 94      -0.000000014072
 95       0.000000037166
 96      -0.000000061852
 97       0.000000046263
 98       0.000000078661
 99       0.000000015584
100      -0.000000027997
101      -0.000001174538
102       0.000001015929
103       0.000001560046
104       0.000000136266
105      -0.000000596707
106       0.000000128838
107      -0.000000106688
108      -0.000000165267
109      -0.000000023291
110       0.000000061886
111       0.000000000228
112       0.000000006083
113       0.000000008805
114      -0.000000000635
115       0.000000001518
116       0.000000009442
117      -0.000000002623
118      -0.000000000784
119      -0.000000019847
120      -0.000000028713
121       0.000000002119
122      -0.000000005096
123      -0.000000030945
124       0.000000008590
125       0.000000001468
126       0.000000041513
127       0.000000060032
128      -0.000000004192
129       0.000000010067
130       0.000000064149
131      -0.000000017791
132      -0.000000002281
133      -0.000000076127
134      -0.000000110028
135       0.000000007104
136      -0.000000017076
137      -0.000000116248
138       0.000000032202
139       0.000000001401
140       0.000000108981
141       0.000000157243
142      -0.000000007426
143       0.000000018142
144       0.000000159778
145      -0.000000044054
146       0.000000006329
147      -0.000000071097
148      -0.000000100677
149      -0.000000006374
150       0.000000013671
151      -0.000000075661
152       0.000000019720
153      -0.000000086441
154      -0.000000798736
155      -0.000001191713
156       0.000000162048
157      -0.000000372086
158      -0.000001411839
159       0.000000407041
160       0.000000055237
161      -0.000000252635
162       0.000000473914
163      -0.000001417770
164      -0.000003180154
165      -0.000005443925
166      -0.000000013566
167      -0.000000022446
168      -0.000000081112
169      -0.000000163593
170      -0.000000235028
171      -0.000000437123
172      -0.000001326678
173      -0.000001951966
174      -0.000004816638
175      -0.000000096770
176      -0.000000047836
177      -0.000000071886
178       0.000000011801
179      -0.000000025607
180       0.000000552940
181       0.000000292827
182       0.000000436029
183      -0.000000059913
184       0.000000137720
185       0.000000016529
186       0.000000050219
187       0.000000076218
188      -0.000000021603
189       0.000000048901
190       0.000000022883
191      -0.000000004914
192       0.000000055510
193      -0.000000253956
194       0.000000476652
195      -0.000001428819
196      -0.000003205261
197      -0.000005516460
198      -0.000000014162
199       0.000000082443
200      -0.000000022444
201      -0.000000163930
202       0.000000489599
203      -0.000000022215
204      -0.000001351969
205       0.000005162511
206      -0.000000799035
207       0.000000057521
208      -0.000000002694
209       0.000000034401
210       0.000000100476
211       0.000000054855
212      -0.000000355387
213       0.000000032907
214      -0.000000189036
215      -0.000000584455
216      -0.000000328546
217      -0.000000001663
218      -0.000000014242
219       0.000000065648
220      -0.000000003484
221       0.000000000354
222       0.000000073895
223      -0.000000048239
224       0.000000055444
225      -0.000000253718
226       0.000000476444
227      -0.000001430880
228      -0.000003209842
229      -0.000005471975
230       0.000000082486
231       0.000000013422
232      -0.000000023936
233       0.000000514768
234       0.000000011230
235      -0.000000019881
236       0.000005322501
237       0.000000454879
238      -0.000000805305
239       0.000000057526
240       0.000000035097
241       0.000000010737
242      -0.000000112362
243      -0.000000019782
244      -0.000000356700
245      -0.000000197686
246      -0.000000037605
247       0.000000662701
248       0.000000110911
249      -0.000000002127
250       0.000000066941
251       0.000000007948
252       0.000000002400
253       0.000000002653
254       0.000000088766
255       0.000000000668
256      -0.000000129784
257      -0.000002714912
258      -0.000000921567
259      -0.000000163812
260       0.000000632504
261      -0.000000103767
262      -0.000000128288
263      -0.000002710275
264      -0.000000916032
265      -0.000000161895
266      -0.000000236287
267      -0.000000596611
268      -0.000000129408
269      -0.000002727635
270      -0.000000910883
271       0.000000651721
272       0.000000059336
273      -0.000000108895
 Sym=     1a
 Ene= -9.06591594587245E+02
 Spin= Alpha
 Occup= 1.000000
  1      -0.040911745554
  2      -0.032678188369
  3      -0.053658648385
  4      -0.091147788956
  5      -0.141194896787
  6      -0.172262319870
  7      -0.051012180661
  8       0.392355401483
  9       0.594521956535
 10       0.150879574575
 11      -0.001461794040
 12       0.000902420689
 13      -0.000352502961
 14       0.000100530754
 15      -0.000015216540
 16      -0.000000035235
 17       0.000002813379
 18      -0.000002887236
 19      -0.000000119126
 20      -0.000000189604
 21       0.000000055077
 22      -0.000000065857
 23      -0.000000073271
 24       0.000000140990
 25      -0.000000251318
 26      -0.000000315626
 27       0.000000573874
 28      -0.000000222208
 29      -0.000000260357
 30       0.000000491185
 31      -0.000000716881
 32      -0.000000937025
 33       0.000001670231
 34      -0.000000245609
 35      -0.000000327240
 36       0.000000578138
 37       0.000000089912
 38       0.000000121896
 39      -0.000000213658
 40      -0.000000017620
 41      -0.000000023641
 42       0.000000041616
 43       0.000000005466
 44       0.000000007326
 45      -0.000000013260
 46      -0.000000021176
 47      -0.000000029132
 48       0.000000051689
 49       0.000000003184
 50       0.000000005135
 51      -0.000000010377
 52       0.000000045714
 53       0.000000061234
 54      -0.000000105225
 55      -0.000000246756
 56      -0.000000333629
 57       0.000000578623
 58       0.000000018026
 59       0.000000022332
 60      -0.000000038994
 61       0.000000031699
 62      -0.000000038334
 63      -0.000000051581
 64       0.000000002093
 65       0.000000020840
 66      -0.000000073630
 67       0.000000070090
 68       0.000000101029
 69       0.000000007970
 70      -0.000000040031
 71       0.000000014269
 72      -0.000000014280
 73      -0.000000021308
 74      -0.000000000083
 75       0.000000008142
 76      -0.000000015570
 77       0.000000015432
 78       0.000000022243
 79       0.000000000994
 80      -0.000000008758
 81       0.000000006178
 82      -0.000000006831
 83      -0.000000009063
 84      -0.000000000300
 85       0.000000003760
 86       0.000000013604
 87      -0.000000011266
 88      -0.000000017534
 89      -0.000000002220
 90       0.000000006693
 91      -0.000000010842
 92       0.000000008646
 93       0.000000014069
 94       0.000000001791
 95      -0.000000005184
 96       0.000000017577
 97      -0.000000014898
 98      -0.000000023541
 99      -0.000000002734
100       0.000000008739
101       0.000000112044
102      -0.000000096423
103      -0.000000148102
104      -0.000000013036
105       0.000000056830
106      -0.000000013106
107       0.000000010771
108       0.000000016669
109       0.000000002358
110      -0.000000006288
111       0.000000007190
112       0.000000049963
113       0.000000071928
114      -0.000000012073
115       0.000000031012
116       0.000000095598
117      -0.000000026297
118      -0.000000007253
119      -0.000000069989
120      -0.000000101250
121       0.000000013416
122      -0.000000033613
123      -0.000000124326
124       0.000000034484
125       0.000000005447
126       0.000000056118
127       0.000000081263
128      -0.000000010317
129       0.000000025690
130       0.000000098463
131      -0.000000027360
132      -0.000000001855
133      -0.000000013277
134      -0.000000019163
135       0.000000003197
136      -0.000000008120
137      -0.000000025307
138       0.000000006999
139      -0.000000000211
140      -0.000000013090
141      -0.000000019119
142       0.000000000949
143      -0.000000002119
144      -0.000000019082
145       0.000000005368
146       0.000000000412
147       0.000000018988
148       0.000000027823
149      -0.000000001353
150       0.000000003133
151       0.000000027328
152      -0.000000007701
153       0.000000007990
154       0.000000072569
155       0.000000108358
156      -0.000000014984
157       0.000000034284
158       0.000000128945
159      -0.000000037215
160      -0.000000006674
161       0.000000026296
162      -0.000000050336
163       0.000000134215
164       0.000000307929
165       0.000000535522
166       0.000000000288
167       0.000000000685
168       0.000000005014
169       0.000000028215
170       0.000000041120
171       0.000000085691
172       0.000000136019
173       0.000000200163
174       0.000000490731
175       0.000000011154
176       0.000000006156
177       0.000000009235
178      -0.000000001514
179       0.000000003365
180      -0.000000047338
181      -0.000000024985
182      -0.000000037066
183       0.000000005273
184      -0.000000012126
185       0.000000001714
186      -0.000000001354
187      -0.000000002129
188       0.000000001102
189      -0.000000002284
190      -0.000000001743
191       0.000000000370
192      -0.000000006747
193       0.000000026623
194      -0.000000050971
195       0.000000136014
196       0.000000311383
197       0.000000543362
198       0.000000000366
199      -0.000000004904
200       0.000000001998
201       0.000000028512
202      -0.000000094388
203       0.000000008728
204       0.000000138752
205      -0.000000527221
206       0.000000080344
207      -0.000000007357
208       0.000000000291
209      -0.000000003477
210      -0.000000012242
211      -0.000000007189
212       0.000000030417
213      -0.000000002508
214       0.000000016311
215       0.000000050440
216       0.000000028484
217      -0.000000001361
218       0.000000000294
219      -0.000000002337
220      -0.000000001345
221      -0.000000001069
222      -0.000000003148
223       0.000000000579
224      -0.000000006779
225       0.000000026787
226      -0.000000051288
227       0.000000137029
228       0.000000312984
229       0.000000539093
230      -0.000000004904
231      -0.000000001214
232       0.000000002157
233      -0.000000098060
234      -0.000000004833
235       0.000000008551
236      -0.000000543798
237      -0.000000045804
238       0.000000081098
239      -0.000000007452
240      -0.000000003606
241      -0.000000001073
242       0.000000014180
243       0.000000002035
244       0.000000030863
245       0.000000017237
246       0.000000003665
247      -0.000000057852
248      -0.000000009608
249      -0.000000001324
250      -0.000000002429
251      -0.000000000456
252       0.000000001745
253      -0.000000000021
254      -0.000000003129
255       0.000000001313
256       0.000000013768
257       0.000000302622
258       0.000000085325
259       0.000000019652
260      -0.000000076271
261       0.000000012619
262       0.000000013470
263       0.000000301282
264       0.000000084914
265       0.000000019338
266       0.000000028286
267       0.000000071704
268       0.000000013888
269       0.000000304296
270       0.000000084173
271      -0.000000078735
272      -0.000000007225
273       0.000000013186
 Sym=     1a
 Ene= -7.49986521241695E+02
 Spin= Alpha
 Occup= 1.000000
  1       0.000000189169
  2       0.000000151158
  3       0.000000257174
  4       0.000000411374
  5       0.000000721413
  6       0.000000658935
  7       0.000000466317
  8      -0.000003154824
  9      -0.000003624302
 10       0.000002528400
 11       0.000003001785
 12      -0.000005554648
 13       0.000006714972
 14      -0.000008015690
 15       0.000004893830
 16       0.000023177586
 17      -0.000108877240
 18       0.000252367400
 19      -0.000365592094
 20       0.000101272357
 21      -0.000019109656
 22      -0.087693349000
 23      -0.083526760433
 24       0.140559960108
 25      -0.145120116463
 26      -0.138224948235
 27       0.232606796755
 28      -0.214815670237
 29      -0.204609249791
 30       0.344319243242
 31      -0.110773812475
 32      -0.105510317973
 33       0.177554121890
 34      -0.003340440899
 35      -0.003182435708
 36       0.005355610973
 37      -0.002065676308
 38      -0.001966141558
 39       0.003308325828
 40       0.001423219516
 41       0.001353118138
 42      -0.002276466701
 43      -0.000883039004
 44      -0.000836742247
 45       0.001407066238
 46       0.000545752178
 47       0.000512106519
 48      -0.000859966471
 49      -0.000350085053
 50      -0.000319558441
 51       0.000534453320
 52       0.000233029626
 53       0.000199395624
 54      -0.000330211270
 55      -0.000168743789
 56      -0.000120197177
 57       0.000193354485
 58       0.000022218813
 59       0.000020839221
 60      -0.000035118085
 61       0.000000438166
 62      -0.000000460483
 63      -0.000000533915
 64      -0.000000111006
 65       0.000000268933
 66       0.000000097637
 67      -0.000000419333
 68      -0.000000386745
 69       0.000000205341
 70       0.000000222589
 71       0.000000619008
 72      -0.000000331110
 73      -0.000000492496
 74      -0.000000400345
 75       0.000000221727
 76      -0.000000770943
 77       0.000000214639
 78       0.000000443885
 79       0.000000643494
 80      -0.000000176378
 81       0.000001344354
 82      -0.000000282439
 83      -0.000000694875
 84      -0.000001189603
 85       0.000000260738
 86      -0.000002967819
 87       0.000000732122
 88       0.000001627732
 89       0.000002544601
 90      -0.000000626524
 91       0.000007420526
 92      -0.000001638299
 93      -0.000003904965
 94      -0.000006488695
 95       0.000001451726
 96      -0.000016164374
 97       0.000003352841
 98       0.000008198079
 99       0.000014348417
100      -0.000003066240
101       0.000035473339
102      -0.000004051087
103      -0.000013320620
104      -0.000036463455
105       0.000005069280
106      -0.000004121256
107       0.000000170413
108       0.000001792336
109       0.000003996145
110      -0.000000303099
111      -0.000000005479
112       0.000000096158
113       0.000000101660
114      -0.000000001242
115       0.000000045813
116       0.000000175834
117      -0.000000027079
118       0.000000030904
119      -0.000000462740
120      -0.000000514777
121      -0.000000006796
122      -0.000000110862
123      -0.000000736057
124       0.000000127065
125      -0.000000078177
126       0.000001131951
127       0.000001264536
128       0.000000023606
129       0.000000209846
130       0.000001739854
131      -0.000000307223
132       0.000000178159
133      -0.000002563754
134      -0.000002844630
135      -0.000000058436
136      -0.000000429598
137      -0.000003897922
138       0.000000688502
139      -0.000000459158
140       0.000006712380
141       0.000007268491
142       0.000000149052
143       0.000001154615
144       0.000010256467
145      -0.000001768997
146       0.000001241790
147      -0.000017965919
148      -0.000018822199
149      -0.000000410822
150      -0.000003311282
151      -0.000027781355
152       0.000004604997
153      -0.000002906286
154       0.000025291199
155       0.000022426453
156       0.000001985784
157       0.000004473276
158       0.000039492606
159      -0.000004606632
160      -0.000000676044
161       0.000003215805
162      -0.000006223191
163       0.000019628758
164       0.000039755076
165       0.000089621694
166       0.000000957814
167       0.000001567706
168       0.000002453667
169      -0.000006383109
170      -0.000010144319
171      -0.000020302384
172       0.000001803855
173       0.000006806577
174       0.000006979562
175      -0.000000379498
176       0.000000299921
177       0.000000347739
178      -0.000000304967
179       0.000000407254
180      -0.000000657501
181      -0.000003052028
182      -0.000004330446
183       0.000001442493
184      -0.000002541365
185       0.000000506245
186      -0.000000956992
187      -0.000001201364
188       0.000000431047
189      -0.000001271444
190      -0.000000649194
191       0.000000123467
192      -0.000000740670
193       0.000003524088
194      -0.000006823580
195       0.000021629760
196       0.000043956778
197       0.000100597003
198       0.000001035711
199      -0.000003154463
200      -0.000000069670
201      -0.000006927131
202       0.000024288918
203      -0.000001841320
204       0.000002448624
205      -0.000012523287
206      -0.000002356764
207      -0.000000071971
208      -0.000000179258
209       0.000000590942
210      -0.000000154502
211      -0.000000508584
212       0.000002898259
213       0.000000553602
214      -0.000002131256
215       0.000003825513
216       0.000004396693
217      -0.000000366044
218       0.000000379445
219      -0.000001210301
220      -0.000000459287
221      -0.000000263663
222      -0.000001741875
223       0.000000464787
224      -0.000001256896
225       0.000005981185
226      -0.000011581864
227       0.000037016318
228       0.000076007332
229       0.000180528114
230      -0.000005246197
231      -0.000000098826
232       0.000000143895
233       0.000036367576
234       0.000001814793
235      -0.000003072224
236      -0.000039180454
237      -0.000000443474
238      -0.000000161451
239      -0.000000605461
240       0.000000531029
241       0.000000038221
242       0.000001028547
243      -0.000000292836
244       0.000006753140
245      -0.000001300369
246      -0.000000191721
247      -0.000011525697
248       0.000000682154
249      -0.000000226939
250      -0.000001891119
251      -0.000000039083
252       0.000000301971
253       0.000000037426
254      -0.000002435047
255       0.000000248811
256       0.000001035577
257      -0.000020401999
258      -0.000006706477
259      -0.000002652414
260       0.000006447704
261       0.000000916639
262       0.000000878467
263      -0.000019856679
264      -0.000006478126
265      -0.000002573926
266      -0.000003967200
267      -0.000004908920
268       0.000002321449
269      -0.000021154054
270      -0.000008319178
271       0.000007795005
272      -0.000000570951
273       0.000001077780
 Sym=     1a
 Ene= -7.49986500799279E+02
 Spin= Alpha
 Occup= 1.000000
  1      -0.000000023571
  2      -0.000000018823
  3      -0.000000032189
  4      -0.000000051007
  5      -0.000000090968
  6      -0.000000079637
  7      -0.000000062426
  8       0.000000409991
  9       0.000000451286
 10      -0.000000329879
 11      -0.000000432736
 12       0.000000797309
 13      -0.000000968505
 14       0.000001136006
 15      -0.000000586006
 16      -0.000003781323
 17       0.000016818573
 18      -0.000039257235
 19       0.000056956059
 20      -0.000015284205
 21       0.000002902405
 22      -0.160494036151
 23       0.074441480418
 24      -0.055893592879
 25      -0.265595208546
 26       0.123190218588
 27      -0.092496039331
 28      -0.393149251514
 29       0.182353360496
 30      -0.136918153435
 31      -0.202736512494
 32       0.094034508410
 33      -0.070604684927
 34      -0.006110512741
 35       0.002834657944
 36      -0.002128701929