[Molden Format]
[Title]
 Molden file created by orca_2mkl for BaseName=/home/petrimatveev_2125/_scratch/CC/PaF4

[Atoms] AU
Pa   1  91         -0.8983380095         1.1950703660       -22.5042893254 
F    2   9          0.0194282744         4.3079916600       -20.2737907675 
F    3   9          2.1618334691         0.4220495450       -24.8610102507 
F    4   9         -1.6138809204        -2.0023254656       -20.3192462399 
F    5   9         -4.1584179467         2.0541889994       -24.5416711005 
[GTO]
  1 0
s   9 1.0 
 57631858.1725339964     15318.1146839455
 26196299.1693340018     -5565.0020035622
 11907408.7133339997      8721.7488303571
  5412458.5060609998       341.2948940372
  2460208.4118459998      4085.4543694394
  1118276.5508389999      1905.4034809116
   508307.5231090000      2611.4146297113
   231048.8741400000      1976.6043094082
   105022.2155180000      2031.4725197545
s   1 1.0 
    47737.3706900000      2301.7278018772
s   1 1.0 
    21698.8048590000      1274.1980990770
s   1 1.0 
     9863.0931180000       705.3748034003
s   1 1.0 
     4483.2241440000       390.4837195855
s   1 1.0 
     2037.8291570000       216.1652706843
s   1 1.0 
      926.2859800000       119.6654863652
s   1 1.0 
      421.0390820000        66.2448162538
s   1 1.0 
      191.3814010000        36.6720247745
s   1 1.0 
       86.9915460000        20.3010209355
s   1 1.0 
       39.5416120000        11.2383064381
s   1 1.0 
       17.9734600000         6.2213388954
s   1 1.0 
        8.1697540000         3.4440292161
s   1 1.0 
        3.7135250000         1.9065572739
s   1 1.0 
        1.6879660000         1.0554383322
s   1 1.0 
        0.7672570000         0.5842728914
s   1 1.0 
        0.3487530000         0.3234435957
s   1 1.0 
        0.1585240000         0.1790528998
s   1 1.0 
        0.0720560000         0.0991203221
s   1 1.0 
        0.0327530000         0.0548716988
s   1 1.0 
        0.0148880000         0.0303764741
p   8 1.0 
   820588.6600690000    117960.8380814268
   341911.9416950000     10293.3338078988
   142463.3090400000     34535.2725490902
    59359.7121000000     17348.6583204729
    24733.2133750000     16831.7677005322
    10305.5055730000     13674.5392108057
     4293.9606550000     12899.6246819168
     1789.1502730000     11789.0634615762
p   1 1.0 
      745.4792800000      5552.4487579542
p   1 1.0 
      310.6163670000      1858.7479720243
p   1 1.0 
      129.4234860000       622.2378919893
p   1 1.0 
       53.9264530000       208.3015048177
p   1 1.0 
       22.4693550000        69.7313936668
p   1 1.0 
        9.3622310000        23.3434089560
p   1 1.0 
        3.9009300000         7.8144836060
p   1 1.0 
        1.6253870000         2.6159899143
p   1 1.0 
        0.6772450000         0.8757342738
p   1 1.0 
        0.2821850000         0.2931618768
p   1 1.0 
        0.1175770000         0.0981393227
p   1 1.0 
        0.0489910000         0.0328537894
d   7 1.0 
    39984.8312080000     49820.8214421646
    15993.9324830000     24763.2125679906
     6397.5729930000     27687.8895786202
     2559.0291970000     25715.0680190714
     1023.6116790000     27614.8741414884
      409.4446720000     25104.2866847335
      163.7778690000     17021.7824315036
d   1 1.0 
       65.5111470000      4300.5271063730
d   1 1.0 
       26.2044590000       865.2202593661
d   1 1.0 
       10.4817840000       174.0731121316
d   1 1.0 
        4.1927130000        35.0216472939
d   1 1.0 
        1.6770850000         7.0459809407
d   1 1.0 
        0.6708340000         1.4175763168
d   1 1.0 
        0.2683340000         0.2852020000
d   1 1.0 
        0.1073330000         0.0573790433
d   1 1.0 
        0.0429330000         0.0115439582
f   6 1.0 
     4212.3892570000     53509.6197850903
     1620.1497140000     46215.8871057453
      623.1345050000     51850.9767921649
      239.6671170000     50432.9890340126
       92.1796610000     36159.3884368328
       35.4537160000     14379.0722744372
f   1 1.0 
       13.6360440000      2037.2717616429
f   1 1.0 
        5.2446320000       237.3334078456
f   1 1.0 
        2.0171660000        27.6483213038
f   1 1.0 
        0.7758330000         3.2209103577
f   1 1.0 
        0.2983970000         0.3752213982
f   1 1.0 
        0.1147680000         0.0437116207

  2 0
s   6 1.0 
    35479.1004410000         1.9229128581
     5318.4728983000         2.2734773358
     1210.4810975000         3.4747482552
      342.8551814000         5.2879612972
      112.0194318100         7.1666332516
       40.7147402500         7.7556346254
s   1 1.0 
       16.0396781100         5.7122450312
s   1 1.0 
        6.5038186700         2.9025947842
s   1 1.0 
        1.5440477500         0.9872011154
s   1 1.0 
        0.6122345300        -0.4932856223
s   1 1.0 
        0.2402798000         0.2445952611
p   4 1.0 
       80.2339004800         4.2755032106
       18.5940107400         4.7314752302
        5.6867902700         4.0864798013
        1.9511006300         2.2989954518
p   1 1.0 
        0.6697021100         0.8635593126
p   1 1.0 
        0.2165130000         0.2105208234
d   1 1.0 
        3.1070000000        20.7284714039
d   1 1.0 
        0.8550000000         2.1672588463
f   1 1.0 
        1.9170000000        24.6547062912

  3 0
s   6 1.0 
    35479.1004410000         1.9229128581
     5318.4728983000         2.2734773358
     1210.4810975000         3.4747482552
      342.8551814000         5.2879612972
      112.0194318100         7.1666332516
       40.7147402500         7.7556346254
s   1 1.0 
       16.0396781100         5.7122450312
s   1 1.0 
        6.5038186700         2.9025947842
s   1 1.0 
        1.5440477500         0.9872011154
s   1 1.0 
        0.6122345300        -0.4932856223
s   1 1.0 
        0.2402798000         0.2445952611
p   4 1.0 
       80.2339004800         4.2755032106
       18.5940107400         4.7314752302
        5.6867902700         4.0864798013
        1.9511006300         2.2989954518
p   1 1.0 
        0.6697021100         0.8635593126
p   1 1.0 
        0.2165130000         0.2105208234
d   1 1.0 
        3.1070000000        20.7284714039
d   1 1.0 
        0.8550000000         2.1672588463
f   1 1.0 
        1.9170000000        24.6547062912

  4 0
s   6 1.0 
    35479.1004410000         1.9229128581
     5318.4728983000         2.2734773358
     1210.4810975000         3.4747482552
      342.8551814000         5.2879612972
      112.0194318100         7.1666332516
       40.7147402500         7.7556346254
s   1 1.0 
       16.0396781100         5.7122450312
s   1 1.0 
        6.5038186700         2.9025947842
s   1 1.0 
        1.5440477500         0.9872011154
s   1 1.0 
        0.6122345300        -0.4932856223
s   1 1.0 
        0.2402798000         0.2445952611
p   4 1.0 
       80.2339004800         4.2755032106
       18.5940107400         4.7314752302
        5.6867902700         4.0864798013
        1.9511006300         2.2989954518
p   1 1.0 
        0.6697021100         0.8635593126
p   1 1.0 
        0.2165130000         0.2105208234
d   1 1.0 
        3.1070000000        20.7284714039
d   1 1.0 
        0.8550000000         2.1672588463
f   1 1.0 
        1.9170000000        24.6547062912

  5 0
s   6 1.0 
    35479.1004410000         1.9229128581
     5318.4728983000         2.2734773358
     1210.4810975000         3.4747482552
      342.8551814000         5.2879612972
      112.0194318100         7.1666332516
       40.7147402500         7.7556346254
s   1 1.0 
       16.0396781100         5.7122450312
s   1 1.0 
        6.5038186700         2.9025947842
s   1 1.0 
        1.5440477500         0.9872011154
s   1 1.0 
        0.6122345300        -0.4932856223
s   1 1.0 
        0.2402798000         0.2445952611
p   4 1.0 
       80.2339004800         4.2755032106
       18.5940107400         4.7314752302
        5.6867902700         4.0864798013
        1.9511006300         2.2989954518
p   1 1.0 
        0.6697021100         0.8635593126
p   1 1.0 
        0.2165130000         0.2105208234
d   1 1.0 
        3.1070000000        20.7284714039
d   1 1.0 
        0.8550000000         2.1672588463
f   1 1.0 
        1.9170000000        24.6547062912

[5D]
[9G]
[MO]
 Sym=     1a
 Ene= -4.14976898582465E+03
 Spin= Alpha
 Occup= 1.000000
  1      -0.082736414818
  2      -0.064032701822
  3      -0.110205865740
  4      -0.176314961756
  5      -0.264167179143
  6      -0.304987726872
  7      -0.195137453871
  8      -0.032838423677
  9      -0.000846735048
 10       0.000590944872
 11      -0.000433111257
 12       0.000323311782
 13      -0.000230865554
 14       0.000155927014
 15      -0.000104049943
 16       0.000069667518
 17      -0.000046159039
 18       0.000028534666
 19      -0.000014322715
 20       0.000006186177
 21      -0.000001663001
 22       0.000000000119
 23       0.000000000151
 24       0.000000001064
 25      -0.000000000016
 26       0.000000000002
 27      -0.000000000111
 28      -0.000000000013
 29      -0.000000000023
 30      -0.000000000111
 31       0.000000000006
 32       0.000000000009
 33       0.000000000046
 34      -0.000000000011
 35      -0.000000000015
 36      -0.000000000081
 37       0.000000000023
 38       0.000000000017
 39       0.000000000160
 40      -0.000000000040
 41      -0.000000000034
 42      -0.000000000272
 43       0.000000000074
 44       0.000000000065
 45       0.000000000518
 46      -0.000000000142
 47      -0.000000000120
 48      -0.000000000997
 49       0.000000000255
 50       0.000000000214
 51       0.000000001809
 52      -0.000000000357
 53      -0.000000000301
 54      -0.000000002498
 55       0.000000000473
 56       0.000000000421
 57       0.000000003026
 58      -0.000000000152
 59      -0.000000000121
 60      -0.000000001198
 61      -0.000000000234
 62      -0.000000000171
 63      -0.000000000224
 64      -0.000000000004
 65      -0.000000000010
 66      -0.000000000338
 67       0.000000000095
 68       0.000000000192
 69       0.000000000084
 70      -0.000000000033
 71       0.000000002238
 72       0.000000000100
 73      -0.000000000184
 74      -0.000000000141
 75       0.000000000059
 76      -0.000000002860
 77      -0.000000000186
 78       0.000000000146
 79       0.000000000179
 80      -0.000000000080
 81       0.000000004683
 82       0.000000000358
 83      -0.000000000158
 84      -0.000000000287
 85       0.000000000132
 86      -0.000000008140
 87      -0.000000000654
 88       0.000000000221
 89       0.000000000543
 90      -0.000000000258
 91       0.000000011496
 92       0.000000000946
 93      -0.000000000246
 94      -0.000000001061
 95       0.000000000531
 96      -0.000000010338
 97      -0.000000000874
 98       0.000000000141
 99       0.000000001454
100      -0.000000000761
101      -0.000000027445
102      -0.000000002245
103       0.000000000868
104       0.000000001141
105      -0.000000000472
106       0.000000013502
107       0.000000001094
108      -0.000000000412
109      -0.000000000469
110       0.000000000187
111       0.000000000046
112      -0.000000001338
113       0.000000000146
114       0.000000015020
115      -0.000000008317
116      -0.000000000646
117       0.000000000822
118      -0.000000000138
119       0.000000003675
120      -0.000000000406
121      -0.000000041264
122       0.000000022848
123       0.000000001767
124      -0.000000002260
125       0.000000000261
126      -0.000000007105
127       0.000000000785
128       0.000000079744
129      -0.000000044172
130      -0.000000003417
131       0.000000004369
132      -0.000000000449
133       0.000000012883
134      -0.000000001423
135      -0.000000144565
136       0.000000080097
137       0.000000006198
138      -0.000000007922
139       0.000000000669
140      -0.000000022542
141       0.000000002501
142       0.000000252870
143      -0.000000140108
144      -0.000000010837
145       0.000000013870
146      -0.000000000651
147       0.000000032737
148      -0.000000003664
149      -0.000000366971
150       0.000000203325
151       0.000000015713
152      -0.000000020163
153      -0.000000000012
154       0.000000003461
155      -0.000000000385
156      -0.000000038668
157       0.000000021426
158       0.000000001660
159      -0.000000002108
160       0.000000010494
161      -0.000000045704
162       0.000000077496
163      -0.000000098856
164       0.000000022394
165      -0.000000227106
166       0.000000010096
167       0.000000034187
168       0.000000024866
169       0.000000016619
170       0.000000056559
171       0.000000039263
172       0.000000060618
173       0.000000205299
174       0.000000149277
175       0.000000000916
176      -0.000000016240
177      -0.000000054893
178       0.000000035266
179      -0.000000022746
180      -0.000000001487
181       0.000000032995
182       0.000000111406
183      -0.000000071589
184       0.000000046171
185       0.000000041051
186      -0.000000009233
187      -0.000000030822
188       0.000000066701
189      -0.000000042987
190      -0.000000035167
191      -0.000000030164
192       0.000000010441
193      -0.000000045462
194       0.000000077045
195      -0.000000097770
196       0.000000023234
197      -0.000000227795
198       0.000000033226
199      -0.000000008393
200      -0.000000026014
201       0.000000056737
202      -0.000000014330
203      -0.000000042246
204       0.000000201513
205      -0.000000050920
206      -0.000000157683
207      -0.000000003061
208       0.000000056748
209      -0.000000014319
210      -0.000000034820
211       0.000000018799
212       0.000000006606
213      -0.000000114707
214       0.000000028936
215       0.000000070416
216      -0.000000038020
217      -0.000000037388
218      -0.000000039571
219       0.000000009971
220       0.000000069539
221      -0.000000037541
222       0.000000031263
223      -0.000000028666
224       0.000000010481
225      -0.000000045642
226       0.000000077380
227      -0.000000098569
228       0.000000022715
229      -0.000000226913
230      -0.000000007825
231      -0.000000035052
232       0.000000024311
233      -0.000000013106
234      -0.000000058272
235       0.000000038607
236      -0.000000047070
237      -0.000000210834
238       0.000000146166
239       0.000000002295
240       0.000000012305
241       0.000000055217
242       0.000000038640
243      -0.000000018228
244      -0.000000004284
245      -0.000000024926
246      -0.000000111997
247      -0.000000078372
248       0.000000036969
249       0.000000042078
250       0.000000006193
251       0.000000028308
252       0.000000071597
253      -0.000000033812
254       0.000000029176
255       0.000000037686
256       0.000000010436
257      -0.000000045438
258       0.000000077001
259      -0.000000097659
260       0.000000023361
261      -0.000000227702
262      -0.000000035407
263       0.000000009333
264      -0.000000022525
265      -0.000000060394
266       0.000000015908
267      -0.000000036391
268      -0.000000214864
269       0.000000056632
270      -0.000000136601
271       0.000000006504
272      -0.000000052279
273       0.000000013789
274      -0.000000039226
275       0.000000022214
276      -0.000000012730
277       0.000000105701
278      -0.000000027886
279       0.000000079299
280      -0.000000044908
281      -0.000000044536
282       0.000000018065
283      -0.000000004784
284       0.000000067858
285      -0.000000038425
286      -0.000000037110
287       0.000000036214
 Sym=     1a
 Ene= -7.80372697131595E+02
 Spin= Alpha
 Occup= 1.000000
  1       0.034737946048
  2       0.029020537767
  3       0.048844475461
  4       0.085593784703
  5       0.138058580934
  6       0.178936802281
  7       0.077157962748
  8      -0.363385414919
  9      -0.614618617595
 10      -0.174680878433
 11       0.002209526374
 12      -0.002023202248
 13       0.001118094146
 14      -0.000599609679
 15       0.000346607871
 16      -0.000222545043
 17       0.000144986496
 18      -0.000088485558
 19       0.000044285495
 20      -0.000019109572
 21       0.000005133025
 22      -0.000000000205
 23      -0.000000001373
 24      -0.000000002031
 25      -0.000000000131
 26      -0.000000002064
 27      -0.000000001527
 28      -0.000000000278
 29      -0.000000002539
 30      -0.000000002437
 31       0.000000000060
 32      -0.000000004244
 33      -0.000000001308
 34       0.000000000067
 35      -0.000000001771
 36      -0.000000000659
 37      -0.000000000141
 38       0.000000000305
 39      -0.000000000761
 40       0.000000000114
 41      -0.000000000156
 42       0.000000000582
 43      -0.000000000227
 44      -0.000000000064
 45      -0.000000001494
 46       0.000000000471
 47       0.000000000326
 48       0.000000003332
 49      -0.000000000810
 50      -0.000000000616
 51      -0.000000005760
 52       0.000000001108
 53       0.000000000904
 54       0.000000007786
 55      -0.000000001455
 56      -0.000000001342
 57      -0.000000009458
 58       0.000000000466
 59       0.000000000373
 60       0.000000003707
 61      -0.000000005328
 62      -0.000000010470
 63      -0.000000015235
 64       0.000000000475
 65      -0.000000001176
 66      -0.000000025432
 67      -0.000000004088
 68      -0.000000002226
 69      -0.000000001439
 70       0.000000000733
 71      -0.000000014808
 72       0.000000000193
 73       0.000000002426
 74       0.000000002219
 75      -0.000000001020
 76       0.000000006440
 77      -0.000000000021
 78      -0.000000000938
 79      -0.000000001307
 80       0.000000000637
 81      -0.000000008051
 82      -0.000000000463
 83       0.000000000469
 84       0.000000001007
 85      -0.000000000496
 86       0.000000023174
 87       0.000000001760
 88      -0.000000000768
 89      -0.000000001704
 90       0.000000000813
 91      -0.000000032533
 92      -0.000000002609
 93       0.000000000779
 94       0.000000003248
 95      -0.000000001633
 96       0.000000028432
 97       0.000000002371
 98      -0.000000000403
 99      -0.000000004339
100       0.000000002280
101       0.000000085547
102       0.000000006983
103      -0.000000002713
104      -0.000000003467
105       0.000000001422
106      -0.000000041730
107      -0.000000003381
108       0.000000001269
109       0.000000001420
110      -0.000000000562
111       0.000000000069
112      -0.000000023337
113       0.000000002198
114       0.000000261624
115      -0.000000145150
116      -0.000000011717
117       0.000000014135
118       0.000000000853
119      -0.000000009511
120       0.000000001280
121       0.000000107186
122      -0.000000059011
123      -0.000000004272
124       0.000000005976
125      -0.000000001288
126       0.000000026827
127      -0.000000003096
128      -0.000000301400
129       0.000000166706
130       0.000000012727
131      -0.000000016569
132       0.000000001492
133      -0.000000038417
134       0.000000004308
135       0.000000431194
136      -0.000000238832
137      -0.000000018397
138       0.000000023659
139      -0.000000001988
140       0.000000065263
141      -0.000000007270
142      -0.000000732129
143       0.000000405619
144       0.000000031339
145      -0.000000040172
146       0.000000001899
147      -0.000000096120
148       0.000000010772
149       0.000001077486
150      -0.000000596969
151      -0.000000046120
152       0.000000059209
153       0.000000000128
154      -0.000000012753
155       0.000000001402
156       0.000000142609
157      -0.000000079024
158      -0.000000006135
159       0.000000007775
160      -0.000000029709
161       0.000000138539
162      -0.000000239501
163       0.000000321720
164      -0.000000043298
165       0.000000694695
166      -0.000000032024
167      -0.000000108465
168      -0.000000078762
169      -0.000000044557
170      -0.000000151681
171      -0.000000104999
172      -0.000000184430
173      -0.000000624656
174      -0.000000453975
175      -0.000000002925
176       0.000000050571
177       0.000000170957
178      -0.000000109829
179       0.000000070838
180       0.000000005085
181      -0.000000106141
182      -0.000000358488
183       0.000000230313
184      -0.000000148543
185      -0.000000128033
186       0.000000028760
187       0.000000096059
188      -0.000000207841
189       0.000000133954
190       0.000000109632
191       0.000000094046
192      -0.000000029563
193       0.000000137844
194      -0.000000238171
195       0.000000318415
196      -0.000000045947
197       0.000000696568
198      -0.000000105478
199       0.000000026644
200       0.000000082430
201      -0.000000152562
202       0.000000038534
203       0.000000113282
204      -0.000000613072
205       0.000000154910
206       0.000000479448
207       0.000000009451
208      -0.000000176774
209       0.000000044607
210       0.000000108464
211      -0.000000058556
212      -0.000000020920
213       0.000000369302
214      -0.000000093167
215      -0.000000226650
216       0.000000122370
217       0.000000116636
218       0.000000123330
219      -0.000000031079
220      -0.000000216707
221       0.000000116989
222      -0.000000097477
223       0.000000089382
224      -0.000000029672
225       0.000000138361
226      -0.000000239159
227       0.000000320839
228      -0.000000044331
229       0.000000693980
230       0.000000024834
231       0.000000111217
232      -0.000000077010
233       0.000000035179
234       0.000000156345
235      -0.000000103293
236       0.000000143221
237       0.000000641444
238      -0.000000444492
239      -0.000000007220
240      -0.000000038330
241      -0.000000171971
242      -0.000000120345
243       0.000000056769
244       0.000000014086
245       0.000000080240
246       0.000000360410
247       0.000000252172
248      -0.000000118947
249      -0.000000131236
250      -0.000000019315
251      -0.000000088218
252      -0.000000223103
253       0.000000105355
254      -0.000000090965
255      -0.000000117489
256      -0.000000029548
257       0.000000137775
258      -0.000000238040
259       0.000000318082
260      -0.000000046320
261       0.000000696329
262       0.000000112390
263      -0.000000029624
264       0.000000071358
265       0.000000162401
266      -0.000000042773
267       0.000000097560
268       0.000000653677
269      -0.000000172298
270       0.000000415320
271      -0.000000020343
272       0.000000162841
273      -0.000000042948
274       0.000000122188
275      -0.000000069195
276       0.000000041327
277      -0.000000340269
278       0.000000089762
279      -0.000000255256
280       0.000000144549
281       0.000000138912
282      -0.000000056286
283       0.000000014903
284      -0.000000211460
285       0.000000119740
286       0.000000115699
287      -0.000000112905
 Sym=     1a
 Ene= -6.57059621212029E+02
 Spin= Alpha
 Occup= 1.000000
  1       0.000000000348
  2       0.000000000295
  3       0.000000000455
  4       0.000000000921
  5       0.000000001135
  6       0.000000002406
  7      -0.000000000266
  8      -0.000000000617
  9      -0.000000010561
 10       0.000000003191
 11      -0.000000009642
 12       0.000000019898
 13      -0.000000028182
 14       0.000000039675
 15      -0.000000046154
 16       0.000000010466
 17       0.000000103906
 18      -0.000000157642
 19       0.000000066550
 20      -0.000000038655
 21       0.000000010709
 22       0.091044101859
 23       0.112459876095
 24       0.100856051355
 25       0.156055096902
 26       0.192763029175
 27       0.172873368953
 28       0.236182168933
 29       0.291737928036
 30       0.261635875601
 31       0.124826005406
 32       0.154188098068
 33       0.138278710353
 34       0.004292553459
 35       0.005302261134
 36       0.004755278514
 37       0.002265573139
 38       0.002798498406
 39       0.002509577191
 40      -0.001574308495
 41      -0.001944633943
 42      -0.001743719680
 43       0.000974310003
 44       0.001203507645
 45       0.001078889331
 46      -0.000598757634
 47      -0.000739631606
 48      -0.000662565901
 49       0.000374976292
 50       0.000463239246
 51       0.000414281714
 52      -0.000229639795
 53      -0.000283726191
 54      -0.000253252823
 55       0.000122847252
 56       0.000151779233
 57       0.000134979270
 58      -0.000026223045
 59      -0.000032402397
 60      -0.000028520705
 61       0.000000035960
 62      -0.000000082102
 63       0.000000784716
 64      -0.000000481823
 65       0.000000311081
 66      -0.000000029608
 67       0.000000065193
 68      -0.000000661702
 69       0.000000432994
 70      -0.000000279094
 71       0.000000086589
 72      -0.000000197939
 73       0.000001927970
 74      -0.000001253996
 75       0.000000802999
 76      -0.000000131844
 77       0.000000293833
 78      -0.000002906126
 79       0.000001916104
 80      -0.000001225096
 81       0.000000241808
 82      -0.000000536109
 83       0.000005315951
 84      -0.000003516495
 85       0.000002246763
 86      -0.000000497167
 87       0.000001104072
 88      -0.000010932923
 89       0.000007219431
 90      -0.000004612707
 91       0.000001063119
 92      -0.000002357125
 93       0.000023375986
 94      -0.000015410346
 95       0.000009848482
 96      -0.000001793104
 97       0.000003964080
 98      -0.000039496136
 99       0.000026133888
100      -0.000016693288
101       0.000002213598
102      -0.000004941152
103       0.000049189395
104      -0.000032646817
105       0.000020842574
106      -0.000000244027
107       0.000000559644
108      -0.000005299371
109       0.000003255997
110      -0.000002101048
111      -0.000000462476
112       0.000000186983
113       0.000000335216
114       0.000000022116
115       0.000000052453
116       0.000000174239
117       0.000000475939
118       0.000000374729
119      -0.000000119573
120      -0.000000233217
121      -0.000000014172
122      -0.000000040691
123      -0.000000144403
124      -0.000000382168
125      -0.000000794437
126       0.000000228239
127       0.000000462500
128       0.000000029441
129       0.000000079016
130       0.000000304327
131       0.000000802381
132       0.000001915216
133      -0.000000548328
134      -0.000001111422
135      -0.000000071987
136      -0.000000186092
137      -0.000000730858
138      -0.000001930138
139      -0.000005218049
140       0.000001514642
141       0.000003055004
142       0.000000193268
143       0.000000510077
144       0.000001997748
145       0.000005267930
146       0.000012390226
147      -0.000003649576
148      -0.000007324800
149      -0.000000449313
150      -0.000001221351
151      -0.000004744465
152      -0.000012486474
153      -0.000015692987
154       0.000004792216
155       0.000009514883
156       0.000000636906
157       0.000001526274
158       0.000005989180
159       0.000015737001
160       0.000001476605
161      -0.000007003135
162       0.000013251671
163      -0.000034419341
164      -0.000054933954
165      -0.000069643721
166       0.000001893590
167       0.000006182279
168       0.000004450291
169      -0.000006944525
170      -0.000021747883
171      -0.000015737333
172       0.000003787554
173       0.000007771790
174       0.000005936011
175       0.000000114653
176      -0.000001156381
177      -0.000004303861
178       0.000002782815
179      -0.000001634568
180      -0.000000432332
181       0.000004713824
182       0.000016978620
183      -0.000010915737
184       0.000006638112
185       0.000001230077
186      -0.000000230122
187      -0.000000878189
188       0.000001967369
189      -0.000001022051
190      -0.000000884895
191      -0.000001061984
192      -0.000000134970
193       0.000000638670
194      -0.000001203580
195       0.000003100781
196       0.000005096155
197       0.000006867348
198      -0.000000399040
199       0.000000269065
200       0.000000457627
201       0.000000893636
202      -0.000001482730
203      -0.000002092979
204       0.000002014397
205       0.000003027867
206       0.000002579107
207      -0.000000313419
208      -0.000000311472
209      -0.000000197032
210       0.000000603228
211       0.000000033865
212       0.000000784435
213       0.000001290219
214       0.000000388821
215      -0.000001859994
216       0.000000096432
217       0.000000422662
218      -0.000000444866
219       0.000000193012
220      -0.000000432972
221      -0.000000363820
222      -0.000000563861
223      -0.000000167786
224      -0.000000418445
225       0.000001986308
226      -0.000003764448
227       0.000009805918
228       0.000015473122
229       0.000019174905
230       0.000000511781
231       0.000001941753
232      -0.000001178238
233      -0.000002215863
234      -0.000007230675
235       0.000003491065
236       0.000002704241
237       0.000004509747
238       0.000001261019
239       0.000000361368
240      -0.000000220832
241      -0.000001515456
242      -0.000000637572
243       0.000000108982
244      -0.000000845438
245       0.000000963174
246       0.000005669461
247       0.000002838339
248      -0.000000848776
249      -0.000000021471
250      -0.000000202045
251      -0.000001050820
252      -0.000000740383
253       0.000000066597
254       0.000000105451
255      -0.000000276162
256      -0.000000921781
257       0.000004370894
258      -0.000008267758
259       0.000021450460
260       0.000034277159
261       0.000043647631
262       0.000004047681
263      -0.000000897787
264       0.000002558214
265      -0.000014298402
266       0.000002503566
267      -0.000009255233
268       0.000005525772
269       0.000002103242
270       0.000004379254
271      -0.000000475805
272       0.000002395047
273      -0.000000875418
274       0.000001802053
275      -0.000001415433
276       0.000001685069
277      -0.000009646816
278       0.000003177477
279      -0.000007244323
280       0.000005102090
281       0.000000905653
282      -0.000000048444
283       0.000000014447
284      -0.000000908380
285       0.000001056000
286       0.000000345350
287      -0.000001128160
 Sym=     1a