[Molden Format]
[Title]
 Molden file created by orca_2mkl for BaseName=/data01/Nikolayandreadi/heavy/simpleIons/SO4_2-

[Atoms] AU
O    1   8         -1.2653870754         0.8078428044        -0.6786195520 
S    2  16          0.9849044740         2.3078752842         0.1640471257 
O    3   8          3.1031155051         0.5449025307         0.8191093517 
O    4   8          1.8054367894         4.0343971103        -1.9263339086 
O    5   8          0.2964488975         3.8443208968         2.4420307219 
[GTO]
  1 0
s   6 1.0 
    27032.3826310000         1.4645050749
     4052.3871392000         1.8244031008
      922.3272271000         2.8547160967
      261.2407098900         4.3654874290
       85.3546413500         5.8940772662
       31.0350352400         6.2963020147
s   1 1.0 
       12.2608607300         4.6698272139
s   1 1.0 
        4.9987076000         2.3826123703
s   1 1.0 
        1.1703108200         0.8019291632
s   1 1.0 
        0.4647474100        -0.4011648063
s   1 1.0 
        0.1850453600         0.2010799377
p   4 1.0 
       63.2749548000         3.0898340730
       14.6270493800         3.3923831935
        4.4501223500         2.9482801524
        1.5275799600         1.7113350234
p   1 1.0 
        0.5293511800         0.6436057935
p   1 1.0 
        0.1747842100         0.1610897223
d   1 1.0 
        2.3140000000        12.3767310624
d   1 1.0 
        0.6450000000         1.3234257612
f   1 1.0 
        1.4280000000        12.7097950062
s   1 1.0 
        0.0616817867         0.0882120269
p   1 1.0 
        0.0582614033         0.0408005732

  2 0
s   7 1.0 
    60700.9281040000         3.5616890827
     9102.6106854000         3.7555593886
     2071.4166009000         5.2896835066
      586.0247682100         7.5887404068
      190.5539502100         9.0996945846
       67.6303842600         7.4897057705
       25.1273069100         2.6585694631
s   1 1.0 
      112.5746301000        24.6314789326
s   1 1.0 
       34.7955542200        10.2106387433
s   1 1.0 
        6.5115556200         2.9051840968
s   1 1.0 
        3.2399032300        -1.7211119553
s   1 1.0 
        1.5477160900         0.9889596337
s   1 1.0 
        0.4054103000        -0.3621022105
s   1 1.0 
        0.1455065100         0.1679082017
p   6 1.0 
      564.3671602700        11.0192682179
      133.4262437900        13.4773632333
       42.4682711900        14.4983567770
       15.6165275800        11.7633044416
        6.1093988500         6.1278327462
        2.4404160200         1.5618594725
p   1 1.0 
        0.8388220100         1.1442669642
p   1 1.0 
        0.3128874700        -0.3335610270
p   1 1.0 
        0.1077010900         0.0879458217
d   2 1.0 
        3.7560000000         5.2825000452
        0.8120000000         1.8103510309
d   1 1.0 
        0.2730000000         0.2939373103
f   1 1.0 
        0.5570000000         1.5281791442
s   1 1.0 
        0.0485021700         0.0736598736
p   1 1.0 
        0.0359003633         0.0222747912

  3 0
s   6 1.0 
    27032.3826310000         1.4645050749
     4052.3871392000         1.8244031008
      922.3272271000         2.8547160967
      261.2407098900         4.3654874290
       85.3546413500         5.8940772662
       31.0350352400         6.2963020147
s   1 1.0 
       12.2608607300         4.6698272139
s   1 1.0 
        4.9987076000         2.3826123703
s   1 1.0 
        1.1703108200         0.8019291632
s   1 1.0 
        0.4647474100        -0.4011648063
s   1 1.0 
        0.1850453600         0.2010799377
p   4 1.0 
       63.2749548000         3.0898340730
       14.6270493800         3.3923831935
        4.4501223500         2.9482801524
        1.5275799600         1.7113350234
p   1 1.0 
        0.5293511800         0.6436057935
p   1 1.0 
        0.1747842100         0.1610897223
d   1 1.0 
        2.3140000000        12.3767310624
d   1 1.0 
        0.6450000000         1.3234257612
f   1 1.0 
        1.4280000000        12.7097950062
s   1 1.0 
        0.0616817867         0.0882120269
p   1 1.0 
        0.0582614033         0.0408005732

  4 0
s   6 1.0 
    27032.3826310000         1.4645050749
     4052.3871392000         1.8244031008
      922.3272271000         2.8547160967
      261.2407098900         4.3654874290
       85.3546413500         5.8940772662
       31.0350352400         6.2963020147
s   1 1.0 
       12.2608607300         4.6698272139
s   1 1.0 
        4.9987076000         2.3826123703
s   1 1.0 
        1.1703108200         0.8019291632
s   1 1.0 
        0.4647474100        -0.4011648063
s   1 1.0 
        0.1850453600         0.2010799377
p   4 1.0 
       63.2749548000         3.0898340730
       14.6270493800         3.3923831935
        4.4501223500         2.9482801524
        1.5275799600         1.7113350234
p   1 1.0 
        0.5293511800         0.6436057935
p   1 1.0 
        0.1747842100         0.1610897223
d   1 1.0 
        2.3140000000        12.3767310624
d   1 1.0 
        0.6450000000         1.3234257612
f   1 1.0 
        1.4280000000        12.7097950062
s   1 1.0 
        0.0616817867         0.0882120269
p   1 1.0 
        0.0582614033         0.0408005732

  5 0
s   6 1.0 
    27032.3826310000         1.4645050749
     4052.3871392000         1.8244031008
      922.3272271000         2.8547160967
      261.2407098900         4.3654874290
       85.3546413500         5.8940772662
       31.0350352400         6.2963020147
s   1 1.0 
       12.2608607300         4.6698272139
s   1 1.0 
        4.9987076000         2.3826123703
s   1 1.0 
        1.1703108200         0.8019291632
s   1 1.0 
        0.4647474100        -0.4011648063
s   1 1.0 
        0.1850453600         0.2010799377
p   4 1.0 
       63.2749548000         3.0898340730
       14.6270493800         3.3923831935
        4.4501223500         2.9482801524
        1.5275799600         1.7113350234
p   1 1.0 
        0.5293511800         0.6436057935
p   1 1.0 
        0.1747842100         0.1610897223
d   1 1.0 
        2.3140000000        12.3767310624
d   1 1.0 
        0.6450000000         1.3234257612
f   1 1.0 
        1.4280000000        12.7097950062
s   1 1.0 
        0.0616817867         0.0882120269
p   1 1.0 
        0.0582614033         0.0408005732

[5D]
[7F]
[9G]
[MO]
 Sym=     1a
 Ene= -9.20608685938912E+01
 Spin= Alpha
 Occup= 2.000000
  1       0.000006297419
  2      -0.000037560994
  3       0.000089185970
  4      -0.000455439722
  5      -0.000943037007
  6       0.000179733903
  7      -0.000087477444
  8      -0.000058310080
  9      -0.000032757146
 10       0.000628041587
 11       0.000418641923
 12       0.000235180965
 13       0.000035789193
 14       0.000023835459
 15       0.000013395202
 16       0.000007786131
 17      -0.000008677324
 18      -0.000005781669
 19      -0.000006437982
 20      -0.000015442246
 21      -0.000151584241
 22       0.000168944197
 23       0.000112609330
 24       0.000125339429
 25       0.000300723810
 26      -0.000038858630
 27      -0.000029147259
 28      -0.000009498782
 29       0.000020938118
 30       0.000041768249
 31       0.000015532015
 32      -0.000063983784
 33      -0.000297395217
 34      -0.000064971749
 35      -0.000043302152
 36      -0.000024328573
 37       0.942168688710
 38       0.013265834499
 39       0.028983937724
 40       0.048985069348
 41       0.025160343084
 42       0.011676316406
 43       0.004637253628
 44      -0.000069105703
 45       0.000000000075
 46       0.000000001130
 47       0.000000000057
 48      -0.000000000077
 49      -0.000000000300
 50      -0.000000000022
 51       0.000000002121
 52       0.000000067082
 53       0.000000003264
 54      -0.000000002251
 55      -0.000000030833
 56      -0.000000001609
 57       0.000000001679
 58       0.000000000749
 59      -0.000000002044
 60       0.000000034628
 61      -0.000000002825
 62       0.000000014092
 63      -0.000000003503
 64      -0.000000008538
 65       0.000000136331
 66      -0.000000010637
 67      -0.000074143634
 68       0.000025907852
 69      -0.000524899738
 70       0.000022829538
 71       0.000516848907
 72      -0.000085964978
 73      -0.000403373559
 74       0.000858724281
 75      -0.000000000391
 76      -0.000000007057
 77      -0.000000000359
 78       0.000006297413
 79      -0.000037560964
 80       0.000089185909
 81      -0.000455439564
 82      -0.000943036714
 83       0.000179734658
 84       0.000082343128
 85      -0.000068531512
 86       0.000025464456
 87      -0.000591179303
 88       0.000492026593
 89      -0.000182822581
 90      -0.000033690473
 91       0.000028017023
 92      -0.000010414104
 93       0.000008899151
 94      -0.000006350253
 95       0.000005282146
 96      -0.000003155717
 97       0.000017084455
 98      -0.000173262473
 99       0.000123625635
100      -0.000102882583
101       0.000061419013
102      -0.000332693984
103       0.000034761659
104       0.000034990545
105      -0.000019903615
106      -0.000008555440
107       0.000034595291
108      -0.000036103026
109      -0.000059712904
110      -0.000297394182
111       0.000061158629
112      -0.000050893630
113       0.000018912719
114       0.000006297309
115      -0.000037560274
116       0.000089184699
117      -0.000455450114
118      -0.000943099251
119       0.000179784830
120       0.000031897732
121       0.000067115126
122      -0.000081261456
123      -0.000229021969
124      -0.000481889353
125       0.000583451243
126      -0.000013060163
127      -0.000027446757
128       0.000033261166
129      -0.000006718125
130       0.000007848647
131       0.000016508105
132       0.000005279356
133      -0.000006481333
134       0.000130796071
135      -0.000152823330
136      -0.000321545461
137      -0.000102804979
138       0.000126220057
139      -0.000009446845
140      -0.000032783451
141      -0.000058360491
142      -0.000043866728
143       0.000043874355
144      -0.000023376616
145       0.000001285483
146      -0.000297389680
147       0.000023691717
148       0.000049848051
149      -0.000060354160
150       0.000006297311
151      -0.000037560292
152       0.000089184733
153      -0.000455450030
154      -0.000943098531
155       0.000179784076
156      -0.000026763487
157       0.000059726152
158       0.000088554125
159       0.000192157849
160      -0.000428836515
161      -0.000635812416
162       0.000010960685
163      -0.000024422766
164      -0.000036243133
165      -0.000009964407
166       0.000007176710
167      -0.000016008925
168       0.000004316923
169       0.000004839057
170       0.000194027335
171      -0.000139732804
172       0.000311826060
173      -0.000084055315
174      -0.000094242594
175      -0.000008572163
176       0.000034668520
177      -0.000068807786
178       0.000038294549
179       0.000033934628
180       0.000018304248
181       0.000002083111
182      -0.000297390089
183      -0.000019878429
184       0.000044360268
185       0.000065770673
 Sym=     1a
 Ene= -2.01339855884334E+01
 Spin= Alpha
 Occup= 2.000000
  1      -0.296937625278
  2      -0.280348421710
  3      -0.170853317210
  4      -0.016510741809
  5      -0.008437881176
  6      -0.002771507647
  7      -0.000920285851
  8      -0.000620325570
  9      -0.000344928756
 10       0.001503639826
 11       0.000991689295
 12       0.000562614893
 13       0.000006880089
 14       0.000023991467
 15       0.000003406453
 16       0.000013083357
 17      -0.000021371880
 18      -0.000028739613
 19      -0.000020266736
 20      -0.000081816446
 21      -0.000150860359
 22       0.000197732200
 23       0.000172810438
 24       0.000174799249
 25       0.000479802021
 26      -0.000015157931
 27      -0.000010424550
 28      -0.000007662426
 29       0.000006319077
 30       0.000032863474
 31       0.000011685146
 32      -0.000053706370
 33       0.002850344988
 34       0.000726319454
 35       0.000335580008
 36       0.000265524051
 37       0.000000053283
 38      -0.000000023710
 39       0.000000090111
 40      -0.000000979784
 41      -0.000002823288
 42      -0.000004807188
 43      -0.000005136804
 44       0.000000544302
 45      -0.000074725486
 46       0.000008404596
 47      -0.000025451315
 48      -0.000261370004
 49       0.000029404497
 50      -0.000089045091
 51      -0.002863094363
 52       0.000322068271
 53      -0.000975296341
 54       0.000722681204
 55      -0.000081313045
 56       0.000246233209
 57      -0.000032324439
 58      -0.000018186840
 59      -0.000156684567
 60      -0.000037132215
 61      -0.000463699146
 62      -0.000134706691
 63      -0.000075785076
 64      -0.000652923966
 65      -0.000154737714
 66      -0.001932371046
 67      -0.000343077602
 68      -0.000297751781
 69       0.000033276410
 70       0.000133646967
 71       0.000032600283
 72       0.000241720666
 73       0.000001401705
 74       0.000026706989
 75       0.000282207058
 76      -0.000031742165
 77       0.000096122126
 78       0.319235250882
 79       0.301400416288
 80       0.183682868735
 81       0.017750940410
 82       0.009071241468
 83       0.002984698340
 84      -0.000931365825
 85       0.000781527031
 86      -0.000287762307
 87       0.001520966481
 88      -0.001256081580
 89       0.000470800409
 90       0.000006408019
 91      -0.000023257200
 92       0.000001188249
 93      -0.000023887621
 94       0.000013548570
 95      -0.000028974759
 96       0.000005610936
 97      -0.000088821315
 98       0.000211535076
 99      -0.000145955309
100       0.000175172185
101      -0.000082336084
102       0.000548246404
103      -0.000014771803
104      -0.000017582079
105       0.000014906803
106      -0.000002617031
107      -0.000030042128
108       0.000029525567
109       0.000051111051
110      -0.003075374039
111       0.000734111557
112      -0.000473706314
113       0.000233001743
114      -0.010332840643
115      -0.009755534128
116      -0.005945420864
117      -0.000574403100
118      -0.000293794417
119      -0.000094000566
120       0.000020545823
121       0.000023849676
122      -0.000027084265
123      -0.000005265792
124      -0.000041560553
125       0.000053120318
126      -0.000025411856
127       0.000001596374
128      -0.000007027024
129      -0.000005718515
130      -0.000004229141
131      -0.000014472027
132      -0.000002080399
133      -0.000047633034
134       0.000034919145
135       0.000030530744
136       0.000031907908
137      -0.000006513240
138       0.000143238210
139       0.000013080107
140       0.000011027251
141       0.000003676610
142      -0.000000298570
143       0.000010076337
144      -0.000018850736
145       0.000006818190
146       0.000094081718
147       0.000184045250
148      -0.000035214182
149       0.000081613778
150      -0.010306706889
151      -0.009730854038
152      -0.005930397205
153      -0.000572900848
154      -0.000292980468
155      -0.000093871750
156      -0.000001127518
157       0.000021050508
158       0.000035648674
159       0.000029646160
160      -0.000037021790
161      -0.000047926272
162      -0.000024381286
163       0.000001775262
164      -0.000010005082
165      -0.000001965470
166       0.000001652552
167      -0.000017417843
168      -0.000004499537
169      -0.000046936098
170      -0.000004445694
171      -0.000031028214
172       0.000061903352
173       0.000018751405
174       0.000136237172
175       0.000010166933
176       0.000011143656
177      -0.000010029515
178      -0.000000805078
179      -0.000012493540
180      -0.000017568868
181      -0.000004015763
182       0.000093818735
183       0.000196078464
184      -0.000033682054
185       0.000046787319
 Sym=     1a
 Ene= -2.01339846642832E+01
 Spin= Alpha
 Occup= 2.000000
  1       0.237327792868
  2       0.224069316936
  3       0.136553871776
  4       0.013198322689
  5       0.006742663208
  6       0.002242626413
  7       0.000741385514
  8       0.000485561820
  9       0.000277387273
 10      -0.001189125732
 11      -0.000806293528
 12      -0.000445702228
 13      -0.000018104167
 14       0.000012664990
 15      -0.000006068234
 16      -0.000049769475
 17       0.000046818936
 18       0.000013333234
 19       0.000029160897
 20       0.000027327960
 21       0.000254681855
 22      -0.000245645353
 23      -0.000113496902
 24      -0.000146859259
 25      -0.000274280486
 26       0.000030744680
 27       0.000021667785
 28       0.000018581912
 29      -0.000018090977
 30      -0.000026017953
 31      -0.000001249515
 32       0.000022788746
 33      -0.002337984775
 34      -0.000454459904
 35      -0.000491927882
 36      -0.000175643528
 37       0.000000559110
 38      -0.000000248825
 39       0.000000945719
 40      -0.000010285960
 41      -0.000029641228
 42      -0.000050458449
 43      -0.000053892081
 44       0.000005684459
 45       0.000007223915
 46       0.000078891870
 47       0.000004852112
 48       0.000025271455
 49       0.000276060712
 50       0.000016979709
 51       0.000276812253
 52       0.003023508562
 53       0.000185958321
 54      -0.000069884896
 55      -0.000763508562
 56      -0.000046960254
 57      -0.000333651421
 58       0.000303489384
 59       0.000023699304
 60       0.000195138906
 61      -0.000012258176
 62      -0.001390491082
 63       0.001264792213
 64       0.000098760728
 65       0.000813245434
 66      -0.000051090936
 67      -0.000027548276
 68      -0.000002768981
 69      -0.000312807557
 70      -0.000070800639
 71      -0.000005254721
 72       0.000037981823
 73       0.000424019551
 74       0.000280284819
 75      -0.000027281485
 76      -0.000297952375
 77      -0.000018325150
 78       0.206951407097
 79       0.195389984069
 80       0.119075776587
 81       0.011509274963
 82       0.005879491977
 83       0.001958852850
 84      -0.000610051557
 85       0.000497830093
 86      -0.000188975011
 87       0.000973309243
 88      -0.000825693190
 89       0.000300531241
 90       0.000018700275
 91       0.000012779039
 92       0.000006666938
 93      -0.000049817222
 94       0.000041156541
 95      -0.000005762792
 96       0.000022189339
 97      -0.000028472607
 98       0.000254945625
 99      -0.000190482152
100       0.000071994797
101      -0.000078837994
102       0.000267675415
103      -0.000023000307
104      -0.000022589277
105       0.000024057061
106       0.000015616853
107      -0.000020534245
108       0.000007824308
109       0.000018873522
110      -0.002045854065
111       0.000340356943
112      -0.000499891607
113       0.000098559522
114      -0.217386276262
115      -0.205241034117
116      -0.125081409240
117      -0.012085836040
118      -0.006178807273
119      -0.002004743880
120       0.000247267118
121       0.000512873138
122      -0.000632680405
123      -0.000400086937
124      -0.000853581966
125       0.001015020640
126      -0.000007679130
127       0.000005102029
128       0.000027335857
129      -0.000043228163
130       0.000043720208
131       0.000028779910
132       0.000030963201
133      -0.000011937579
134       0.000191500561
135      -0.000218914384
136      -0.000270050605
137      -0.000170471089
138       0.000110438047
139       0.000005804426
140      -0.000027726425
141      -0.000022656951
142      -0.000018542318
143       0.000025205579
144      -0.000013384832
145      -0.000016018836
146       0.002035060223
147      -0.000158946290
148      -0.000496914932
149       0.000345559370
150      -0.209489686727
151      -0.197785607863
152      -0.120537834745
153      -0.011646754829
154      -0.005954418968
155      -0.001930971095
156      -0.000201459730
157       0.000438525061
158       0.000663266371
159       0.000321122802
160      -0.000734155959
161      -0.001067876892
162       0.000010613264
163       0.000008008440
164      -0.000025562297
165      -0.000048046837
166       0.000041910996
167      -0.000022795288
168       0.000029311951
169       0.000006068059
170       0.000239749758
171      -0.000200778058
172       0.000244726128
173      -0.000154108558
174      -0.000069262526
175      -0.000013732565
176       0.000028469738
177      -0.000023588033
178       0.000019523312
179       0.000018768350
180       0.000007961378
181      -0.000015434824
182       0.001959118623
183       0.000095109663
184      -0.000454630711
185      -0.000388001666
 Sym=     1a
 Ene= -2.01339837149787E+01
 Spin= Alpha
 Occup= 2.000000
  1      -0.003084422024
  2      -0.002912117638
  3      -0.001774700147
  4      -0.000171581093
  5      -0.000087647590
  6      -0.000029440222
  7      -0.000012667754
  8      -0.000006696217
  9       0.000005170585
 10       0.000010672433
 11       0.000009871544
 12       0.000019574401
 13       0.000008798220
 14       0.000000906321
 15      -0.000024874993
 16       0.000003346126
 17      -0.000002603234
 18       0.000047178815
 19       0.000002190105
 20      -0.000016681625
 21       0.000003786286
 22       0.000031403661
 23      -0.000139835735
 24      -0.000014468854
 25       0.000051065369
 26       0.000006000377
 27       0.000005852990
 28      -0.000010209059
 29       0.000018903755
 30      -0.000012442797
 31       0.000009469620
 32      -0.000005452132
 33       0.000031148792
 34      -0.000060064216
 35      -0.000001909946
 36       0.000193561172
 37      -0.000000014893
 38       0.000000006629
 39      -0.000000025189
 40       0.000000273819
 41       0.000000788916
 42       0.000001343284
 43       0.000001435827
 44      -0.000000152145
 45       0.000025813930
 46       0.000002252762
 47      -0.000075043374
 48       0.000090258268
 49       0.000007877743
 50      -0.000262457019
 51       0.000988937153
 52       0.000086311694
 53      -0.002875321511
 54      -0.000249576940
 55      -0.000021785466
 56       0.000725806901
 57       0.000050457932
 58       0.000005679695
 59       0.000462349463
 60       0.000011200340
 61      -0.000160859743
 62       0.000210264506
 63       0.000023663329
 64       0.001926657317
 65       0.000046670419
 66      -0.000670345199
 67      -0.000003689014
 68      -0.000312776617
 69       0.000052318177
 70      -0.000380063771
 71       0.000046284493
 72      -0.000193789123
 73      -0.000009220085
 74      -0.000007461452
 75      -0.000097480835
 76      -0.000008507077
 77       0.000283394356
 78      -0.002721522508
 79      -0.002569486069
 80      -0.001565906722
 81      -0.000151353483
 82      -0.000077264480
 83      -0.000026165029
 84       0.000004982477
 85      -0.000006923318
 86       0.000011258341
 87      -0.000017507141
 88       0.000010197896
 89       0.000009853944
 90       0.000008437071
 91       0.000000853009
 92      -0.000025001642
 93       0.000007348729
 94       0.000003410473
 95       0.000046927698
 96      -0.000000067425
 97      -0.000016089568
 98      -0.000038100530
 99      -0.000031463366
100      -0.000136982673
101       0.000009204593
102       0.000045528010
103       0.000008646126
104       0.000009028906
105       0.000003309700
106       0.000020770307
107       0.000009765346
108       0.000009070643
109       0.000005448901
110       0.000027647387
111      -0.000070641636
112      -0.000001732077
113       0.000189914625
114      -0.305764105977
115      -0.288681832151
116      -0.175931852266
117      -0.017001800378
118      -0.008688607773
119      -0.002857052819
120       0.000345790968
121       0.000733763177
122      -0.000879868210
123      -0.000564042471
124      -0.001177350686
125       0.001438667309
126      -0.000003137212
127      -0.000023931252
128       0.000004863661
129      -0.000011558471
130       0.000018813572
131       0.000085645268
132       0.000011500297
133      -0.000031280464
134       0.000149817665
135      -0.000181081899
136      -0.000518237584
137      -0.000104034769
138       0.000194716534
139      -0.000015088151
140      -0.000009406192
141      -0.000049658582
142      -0.000025820480
143       0.000033963417
144      -0.000012978895
145       0.000002602344
146       0.002942037405
147      -0.000267323516
148      -0.000429607764
149       0.000704711512
150       0.311106859073
151       0.293726076904
152       0.179006029396
153       0.017298783611
154       0.008840504256
155       0.002905584498
156       0.000294757944
157      -0.000664910188
158      -0.000976565636
159      -0.000482256202
160       0.001065367725
161       0.001593846011
162      -0.000001497233
163       0.000023271460
164       0.000008369103
165       0.000029722110
166      -0.000016373395
167       0.000084675227
168      -0.000007218380
169      -0.000027956666
170      -0.000257778554
171       0.000165129180
172      -0.000508606647
173       0.000077720505
174       0.000162277795
175       0.000000348529
176      -0.000011583674
177       0.000057517705
178      -0.000021305997
179      -0.000030314181
180      -0.000009369734
181      -0.000002831321
182      -0.002990460448
183      -0.000237732017
184       0.000377766070
185       0.000760141225
 Sym=     1a
 Ene= -2.01339379181479E+01
 Spin= Alpha
 Occup= 2.000000
  1       0.213985933509
  2       0.202052210423
  3       0.123084931436
  4       0.011991010873
  5       0.006011850306
  6       0.003291516923
  7       0.000654267757
  8       0.000436341718
  9       0.000245021034
 10      -0.000927435949
 11      -0.000617915590
 12      -0.000347274529
 13       0.000209577959
 14       0.000139236169
 15       0.000078470007
 16      -0.000025582917
 17       0.000028697092
 18       0.000019530916
 19       0.000021416883
 20       0.000052264513
 21       0.000169750463
 22      -0.000189987748
 23      -0.000127790400
 24      -0.000141747213
 25      -0.000341663941
 26       0.000036081104
 27       0.000027679412
 28       0.000004946091
 29      -0.000019521584
 30      -0.000035802598
 31      -0.000015476674
 32       0.000057982001
 33      -0.004843046150
 34      -0.000754411342
 35      -0.000498876209
 36      -0.000282288432
 37       0.000028033828
 38      -0.000012467132
 39       0.000047399906
 40      -0.000515465130
 41      -0.001485428958
 42      -0.002529730123
 43      -0.002704555138
 44       0.000287862998
 45       0.000000011536
 46      -0.000001591181
 47      -0.000000088416
 48       0.000000041441
 49      -0.000005541753
 50      -0.000000307963
 51       0.000000444201
 52      -0.000060933523
 53      -0.000003385060
 54      -0.000000111102
 55       0.000015389553
 56       0.000000854533
 57       0.000006741263
 58      -0.000006017129
 59       0.000000073354
 60      -0.000003862934
 61       0.000001044280
 62       0.000028045133
 63      -0.000025035144
 64       0.000000310422
 65      -0.000016118165
 66       0.000004351246
 67       0.000065654281
 68      -0.000022067884
 69       0.000462510782
 70      -0.000018891470
 71      -0.000449247293
 72       0.000073413482
 73       0.000342210406
 74       0.014047167782
 75      -0.000000044214
 76       0.000005984597
 77       0.000000332427
 78       0.213420924572
 79       0.201518767007
 80       0.122759834414
 81       0.011959593355
 82       0.005995793904
 83       0.003286238796
 84      -0.000614202099
 85       0.000511406804
 86      -0.000189937388
 87       0.000870328545
 88      -0.000724061972
 89       0.000269164327
 90      -0.000197319843
 91       0.000163772913
 92      -0.000061066643
 93      -0.000029305284
 94       0.000020810746
 95      -0.000017819145
 96       0.000010312006
 97      -0.000057535611
 98       0.000193993198
 99      -0.000138289041
100       0.000116612043
101      -0.000069005748
102       0.000376707481
103      -0.000033318498
104      -0.000032819275
105       0.000014760658
106       0.000008061521
107      -0.000028915196
108       0.000033728018
109       0.000053779648
110      -0.004837613691
111       0.000709107380
112      -0.000586226359
113       0.000219542679
114       0.222352582195
115       0.209951430299
116       0.127898976458
117       0.012456272489
118       0.006249660931
119       0.003369651195
120      -0.000248116676
121      -0.000521918516
122       0.000632119223
123       0.000353496018
124       0.000744078551
125      -0.000900545679
126      -0.000076075792
127      -0.000160711981
128       0.000193823483
129       0.000023784941
130      -0.000027627433
131      -0.000056812244
132      -0.000018610854
133       0.000022420138
134      -0.000154429116
135       0.000180191541
136       0.000375276664
137       0.000121716186
138      -0.000147706073
139       0.000008355029
140       0.000032100857
141       0.000052500337
142       0.000042510989
143      -0.000038777684
144       0.000022054025
145      -0.000003832217
146      -0.004923564702
147       0.000280545246
148       0.000594528524
149      -0.000714598327
150       0.222522549984
151       0.210111902450
152       0.127996773228
153       0.012465723011
154       0.006254490256
155       0.003371239857
156       0.000208336580
157      -0.000464803864
158      -0.000689368207
159      -0.000296862629
160       0.000662773739
161       0.000982260055
162       0.000063824610
163      -0.000143071377
164      -0.000211270076
165       0.000034969204
166      -0.000025329004
167       0.000055140169
168      -0.000015300316
169      -0.000016553481
170      -0.000228336942
171       0.000165058816
172      -0.000364299732
173       0.000099851126
174       0.000109723685
175       0.000007930671
176      -0.000033600053
177       0.000062601240
178      -0.000036890316
179      -0.000029125108
180      -0.000018272624
181      -0.000004589242
182      -0.004925197940
183      -0.000235528580
184       0.000529737925
185       0.000779520189
 Sym=     1a
 Ene= -8.78244361307047E+00
 Spin= Alpha
 Occup= 2.000000
  1       0.000087624677
  2       0.000082870949
  3       0.000143749229
  4      -0.000434841033
  5      -0.000523418304
  6      -0.000854132894