[Molden Format]
[Title]
 Molden file created by orca_2mkl for BaseName=/data01/Nikolayandreadi/heavy/CC/UO2_SO4

[Atoms] AU
S    1  16         -2.9073020831         2.7596369932         2.0217140557 
O    2   8         -2.0331657961        -0.0865929206         1.8351640713 
O    3   8         -1.1233306928         3.7122743935        -0.2009232415 
O    4   8         -5.4820085871         2.9822694085         1.2624296540 
O    5   8         -2.0802010796         3.8245902663         4.3535775235 
U    6  92          0.6627061682         0.2047934006        -1.1969959969 
O    7   8          3.1149697571         0.1680627937         0.9375044734 
O    8   8         -1.5124158551        -1.0004323537        -3.2917630856 
[GTO]
  1 0
s   7 1.0 
    60700.9281040000         3.5616890827
     9102.6106854000         3.7555593886
     2071.4166009000         5.2896835066
      586.0247682100         7.5887404068
      190.5539502100         9.0996945846
       67.6303842600         7.4897057705
       25.1273069100         2.6585694631
s   1 1.0 
      112.5746301000        24.6314789326
s   1 1.0 
       34.7955542200        10.2106387433
s   1 1.0 
        6.5115556200         2.9051840968
s   1 1.0 
        3.2399032300        -1.7211119553
s   1 1.0 
        1.5477160900         0.9889596337
s   1 1.0 
        0.4054103000        -0.3621022105
s   1 1.0 
        0.1455065100         0.1679082017
p   6 1.0 
      564.3671602700        11.0192682179
      133.4262437900        13.4773632333
       42.4682711900        14.4983567770
       15.6165275800        11.7633044416
        6.1093988500         6.1278327462
        2.4404160200         1.5618594725
p   1 1.0 
        0.8388220100         1.1442669642
p   1 1.0 
        0.3128874700        -0.3335610270
p   1 1.0 
        0.1077010900         0.0879458217
d   2 1.0 
        3.7560000000         5.2825000452
        0.8120000000         1.8103510309
d   1 1.0 
        0.2730000000         0.2939373103
f   1 1.0 
        0.5570000000         1.5281791442

  2 0
s   6 1.0 
    27032.3826310000         1.4645050749
     4052.3871392000         1.8244031008
      922.3272271000         2.8547160967
      261.2407098900         4.3654874290
       85.3546413500         5.8940772662
       31.0350352400         6.2963020147
s   1 1.0 
       12.2608607300         4.6698272139
s   1 1.0 
        4.9987076000         2.3826123703
s   1 1.0 
        1.1703108200         0.8019291632
s   1 1.0 
        0.4647474100        -0.4011648063
s   1 1.0 
        0.1850453600         0.2010799377
p   4 1.0 
       63.2749548000         3.0898340730
       14.6270493800         3.3923831935
        4.4501223500         2.9482801524
        1.5275799600         1.7113350234
p   1 1.0 
        0.5293511800         0.6436057935
p   1 1.0 
        0.1747842100         0.1610897223
d   1 1.0 
        2.3140000000        12.3767310624
d   1 1.0 
        0.6450000000         1.3234257612
f   1 1.0 
        1.4280000000        12.7097950062

  3 0
s   6 1.0 
    27032.3826310000         1.4645050749
     4052.3871392000         1.8244031008
      922.3272271000         2.8547160967
      261.2407098900         4.3654874290
       85.3546413500         5.8940772662
       31.0350352400         6.2963020147
s   1 1.0 
       12.2608607300         4.6698272139
s   1 1.0 
        4.9987076000         2.3826123703
s   1 1.0 
        1.1703108200         0.8019291632
s   1 1.0 
        0.4647474100        -0.4011648063
s   1 1.0 
        0.1850453600         0.2010799377
p   4 1.0 
       63.2749548000         3.0898340730
       14.6270493800         3.3923831935
        4.4501223500         2.9482801524
        1.5275799600         1.7113350234
p   1 1.0 
        0.5293511800         0.6436057935
p   1 1.0 
        0.1747842100         0.1610897223
d   1 1.0 
        2.3140000000        12.3767310624
d   1 1.0 
        0.6450000000         1.3234257612
f   1 1.0 
        1.4280000000        12.7097950062

  4 0
s   6 1.0 
    27032.3826310000         1.4645050749
     4052.3871392000         1.8244031008
      922.3272271000         2.8547160967
      261.2407098900         4.3654874290
       85.3546413500         5.8940772662
       31.0350352400         6.2963020147
s   1 1.0 
       12.2608607300         4.6698272139
s   1 1.0 
        4.9987076000         2.3826123703
s   1 1.0 
        1.1703108200         0.8019291632
s   1 1.0 
        0.4647474100        -0.4011648063
s   1 1.0 
        0.1850453600         0.2010799377
p   4 1.0 
       63.2749548000         3.0898340730
       14.6270493800         3.3923831935
        4.4501223500         2.9482801524
        1.5275799600         1.7113350234
p   1 1.0 
        0.5293511800         0.6436057935
p   1 1.0 
        0.1747842100         0.1610897223
d   1 1.0 
        2.3140000000        12.3767310624
d   1 1.0 
        0.6450000000         1.3234257612
f   1 1.0 
        1.4280000000        12.7097950062

  5 0
s   6 1.0 
    27032.3826310000         1.4645050749
     4052.3871392000         1.8244031008
      922.3272271000         2.8547160967
      261.2407098900         4.3654874290
       85.3546413500         5.8940772662
       31.0350352400         6.2963020147
s   1 1.0 
       12.2608607300         4.6698272139
s   1 1.0 
        4.9987076000         2.3826123703
s   1 1.0 
        1.1703108200         0.8019291632
s   1 1.0 
        0.4647474100        -0.4011648063
s   1 1.0 
        0.1850453600         0.2010799377
p   4 1.0 
       63.2749548000         3.0898340730
       14.6270493800         3.3923831935
        4.4501223500         2.9482801524
        1.5275799600         1.7113350234
p   1 1.0 
        0.5293511800         0.6436057935
p   1 1.0 
        0.1747842100         0.1610897223
d   1 1.0 
        2.3140000000        12.3767310624
d   1 1.0 
        0.6450000000         1.3234257612
f   1 1.0 
        1.4280000000        12.7097950062

  6 0
s   9 1.0 
 58915269.2040619999     15878.5363952950
 26779667.8200279996     -5784.7557541551
 12172576.2818310000      9027.3946318877
  5532989.2190140001       325.6868040056
  2514995.0995519999      4208.1243710139
  1143179.5907050001      1939.1491289669
   519627.0866840000      2669.4311026285
   236194.1303110000      2005.5172738201
   107360.9683230000      2058.9530636601
s   1 1.0 
    48800.4401470000      2340.0648682401
s   1 1.0 
    22182.0182490000      1295.4208592531
s   1 1.0 
    10082.7355680000       717.1233692609
s   1 1.0 
     4583.0616220000       396.9875296292
s   1 1.0 
     2083.2098280000       219.7656713216
s   1 1.0 
      946.9135580000       121.6586080998
s   1 1.0 
      430.4152540000        67.3481752053
s   1 1.0 
      195.6432970000        37.2828258248
s   1 1.0 
       88.9287710000        20.6391501245
s   1 1.0 
       40.4221690000        11.4254891526
s   1 1.0 
       18.3737130000         6.3249600754
s   1 1.0 
        8.3516880000         3.5013924304
s   1 1.0 
        3.7962220000         1.9383124866
s   1 1.0 
        1.7255550000         1.0730172334
s   1 1.0 
        0.7843430000         0.5940043302
s   1 1.0 
        0.3565200000         0.3288311987
s   1 1.0 
        0.1620540000         0.1820350044
s   1 1.0 
        0.0736610000         0.1007716339
s   1 1.0 
        0.0334820000         0.0557851540
s   1 1.0 
        0.0152190000         0.0308815919
p   8 1.0 
   839813.6669700000    124700.6825327761
   349922.3612380000     10799.0830937165
   145800.9838490000     36359.2991195727
    60750.4099370000     18163.2607860982
    25312.6708070000     17573.6487977577
    10546.9461700000     14195.6918408552
     4394.5609040000     13322.9302572221
     1831.0670430000     12107.7084625556
p   1 1.0 
      762.9446010000      5715.5278197986
p   1 1.0 
      317.8935840000      1913.3406184205
p   1 1.0 
      132.4556600000       640.5134283167
p   1 1.0 
       55.1898580000       214.4194529751
p   1 1.0 
       22.9957740000        71.7794502225
p   1 1.0 
        9.5815730000        24.0290224861
p   1 1.0 
        3.9923220000         8.0439996005
p   1 1.0 
        1.6634670000         2.6928231053
p   1 1.0 
        0.6931110000         0.9014540144
p   1 1.0 
        0.2887960000         0.3017720791
p   1 1.0 
        0.1203320000         0.1010221266
p   1 1.0 
        0.0501380000         0.0338180721
d   7 1.0 
    41049.8202270000     53262.0337640016
    16419.9280910000     26338.4031025142
     6567.9712360000     29332.4246479962
     2627.1884950000     27101.6066256769
     1050.8753980000     28990.3214062957
      420.3501590000     26289.6282344813
      168.1400640000     17820.8132210096
d   1 1.0 
       67.2560250000      4502.9764563892
d   1 1.0 
       26.9024100000       905.9509006942
d   1 1.0 
       10.7609640000       182.2676717095
d   1 1.0 
        4.3043860000        36.6703201328
d   1 1.0 
        1.7217540000         7.3776748265
d   1 1.0 
        0.6887020000         1.4843111023
d   1 1.0 
        0.2754810000         0.2986279634
d   1 1.0 
        0.1101920000         0.0600803838
d   1 1.0 
        0.0440770000         0.0120876293
f   6 1.0 
     4391.9602590000     58042.2322349557
     1689.2154840000     50234.6786083959
      649.6982630000     55932.1636963999
      249.8839470000     54589.9728655915
       96.1092110000     39385.8448814677
       36.9650810000     15829.5183325708
f   1 1.0 
       14.2173390000      2237.9031973610
f   1 1.0 
        5.4682070000       260.7061095750
f   1 1.0 
        2.1031570000        30.3711607432
f   1 1.0 
        0.8089060000         3.5381049160
f   1 1.0 
        0.3111180000         0.4121749941
f   1 1.0 
        0.1196610000         0.0480168308

  7 0
s   6 1.0 
    27032.3826310000         1.4645050749
     4052.3871392000         1.8244031008
      922.3272271000         2.8547160967
      261.2407098900         4.3654874290
       85.3546413500         5.8940772662
       31.0350352400         6.2963020147
s   1 1.0 
       12.2608607300         4.6698272139
s   1 1.0 
        4.9987076000         2.3826123703
s   1 1.0 
        1.1703108200         0.8019291632
s   1 1.0 
        0.4647474100        -0.4011648063
s   1 1.0 
        0.1850453600         0.2010799377
p   4 1.0 
       63.2749548000         3.0898340730
       14.6270493800         3.3923831935
        4.4501223500         2.9482801524
        1.5275799600         1.7113350234
p   1 1.0 
        0.5293511800         0.6436057935
p   1 1.0 
        0.1747842100         0.1610897223
d   1 1.0 
        2.3140000000        12.3767310624
d   1 1.0 
        0.6450000000         1.3234257612
f   1 1.0 
        1.4280000000        12.7097950062

  8 0
s   6 1.0 
    27032.3826310000         1.4645050749
     4052.3871392000         1.8244031008
      922.3272271000         2.8547160967
      261.2407098900         4.3654874290
       85.3546413500         5.8940772662
       31.0350352400         6.2963020147
s   1 1.0 
       12.2608607300         4.6698272139
s   1 1.0 
        4.9987076000         2.3826123703
s   1 1.0 
        1.1703108200         0.8019291632
s   1 1.0 
        0.4647474100        -0.4011648063
s   1 1.0 
        0.1850453600         0.2010799377
p   4 1.0 
       63.2749548000         3.0898340730
       14.6270493800         3.3923831935
        4.4501223500         2.9482801524
        1.5275799600         1.7113350234
p   1 1.0 
        0.5293511800         0.6436057935
p   1 1.0 
        0.1747842100         0.1610897223
d   1 1.0 
        2.3140000000        12.3767310624
d   1 1.0 
        0.6450000000         1.3234257612
f   1 1.0 
        1.4280000000        12.7097950062

[5D]
[7F]
[9G]
[MO]
 Sym=     1a
 Ene= -4.26065154853755E+03
 Spin= Alpha
 Occup= 2.000000
  1      -0.000000016852
  2       0.000000017549
  3      -0.000000013250
  4       0.000000123464
  5       0.000000309373
  6       0.000000403409
  7       0.000000879147
  8       0.000000124045
  9       0.000000022576
 10      -0.000000013140
 11      -0.000000021204
 12      -0.000000157350
 13       0.000000090045
 14       0.000000149984
 15       0.000000002963
 16      -0.000000088787
 17       0.000000033231
 18      -0.000000025760
 19       0.000000021510
 20       0.000000021266
 21       0.000000003677
 22       0.000000113087
 23      -0.000000043765
 24      -0.000000002334
 25       0.000000068949
 26      -0.000000060897
 27      -0.000000722921
 28       0.000000056290
 29      -0.000000132164
 30      -0.000000308007
 31       0.000000042744
 32       0.000000054079
 33       0.000000036399
 34      -0.000000037012
 35       0.000000027853
 36       0.000000045487
 37      -0.000000011089
 38      -0.000000024354
 39       0.000000108640
 40      -0.000000193327
 41       0.000000450223
 42       0.000001269443
 43       0.000002346230
 44      -0.000000009838
 45       0.000000042245
 46      -0.000000000605
 47       0.000000274975
 48      -0.000000309446
 49      -0.000000217790
 50       0.000000486398
 51       0.000000954442
 52      -0.000000792910
 53       0.000000021419
 54      -0.000000021142
 55      -0.000000014846
 56       0.000000023528
 57       0.000000022046
 58       0.000000015637
 59      -0.000000085136
 60       0.000000039556
 61       0.000000033686
 62      -0.000000042443
 63      -0.000000027482
 64      -0.000000070309
 65      -0.000000015849
 66       0.000000043255
 67       0.000000012102
 68      -0.000000001837
 69      -0.000000001731
 70      -0.000000026200
 71       0.000000117057
 72      -0.000000208940
 73       0.000000488845
 74       0.000001215046
 75       0.000002073719
 76      -0.000000015215
 77      -0.000000026194
 78       0.000000024000
 79       0.000000290573
 80      -0.000000086998
 81      -0.000000295724
 82      -0.000000014739
 83      -0.000000983047
 84       0.000000286003
 85      -0.000000023941
 86       0.000000007594
 87       0.000000017937
 88      -0.000000027950
 89      -0.000000030486
 90      -0.000000004241
 91      -0.000000016490
 92       0.000000034517
 93       0.000000009280
 94      -0.000000032740
 95      -0.000000028257
 96       0.000000008616
 97      -0.000000037748
 98      -0.000000000031
 99      -0.000000054331
100      -0.000000065718
101       0.000000021171
102       0.000000012566
103      -0.000000056741
104       0.000000104306
105      -0.000000302136
106      -0.000000796435
107      -0.000000706371
108      -0.000000013940
109       0.000000017819
110       0.000000025577
111       0.000000143690
112      -0.000000101217
113      -0.000000117917
114      -0.000000255560
115       0.000000062281
116      -0.000000026862
117       0.000000005575
118       0.000000010695
119       0.000000009927
120       0.000000009019
121      -0.000000000478
122      -0.000000034348
123      -0.000000061795
124      -0.000000028986
125      -0.000000015446
126      -0.000000022183
127       0.000000002811
128      -0.000000004829
129      -0.000000001607
130      -0.000000006310
131      -0.000000000759
132       0.000000001826
133       0.000000004652
134       0.000000012664
135      -0.000000057200
136       0.000000105212
137      -0.000000306030
138      -0.000000809799
139      -0.000000699629
140      -0.000000027650
141       0.000000014241
142       0.000000012834
143       0.000000126824
144      -0.000000106285
145      -0.000000135072
146       0.000000022279
147       0.000000130203
148       0.000000224715
149       0.000000001173
150       0.000000010003
151       0.000000008300
152       0.000000012056
153      -0.000000001127
154       0.000000011344
155      -0.000000058970
156      -0.000000003551
157      -0.000000050853
158      -0.000000009054
159      -0.000000001406
160       0.000000005269
161      -0.000000001270
162       0.000000005931
163       0.000000005258
164      -0.000000002421
165      -0.000000001188
166       0.084983971222
167       0.065169463749
168       0.111711681612
169       0.177550139606
170       0.264431356431
171       0.303181726772
172       0.192924276858
173       0.032220536382
174       0.000869378757
175      -0.000612558070
176       0.000447895852
177      -0.000332968596
178       0.000237958204
179      -0.000161974796
180       0.000110174353
181      -0.000077026923
182       0.000054515733
183      -0.000033835603
184       0.000006577257
185      -0.000003376568
186       0.000001044600
187       0.000000166967
188      -0.000000093073
189      -0.000000157603
190      -0.000000011386
191      -0.000000030326
192       0.000000020745
193       0.000000001513
194      -0.000000019413
195       0.000000003731
196      -0.000000011174
197       0.000000005775
198       0.000000010511
199       0.000000022173
200      -0.000000016773
201      -0.000000019427
202      -0.000000036574
203       0.000000030514
204       0.000000031242
205       0.000000059179
206      -0.000000047300
207      -0.000000051053
208      -0.000000089665
209       0.000000079527
210       0.000000074969
211       0.000000130232
212      -0.000000153955
213      -0.000000097590
214      -0.000000138686
215       0.000000348558
216       0.000000049626
217      -0.000000317536
218      -0.000000435125
219       0.000000480285
220       0.000001918560
221       0.000000403150
222      -0.000002245273
223      -0.000000588933
224       0.000000245896
225       0.000000580760
226      -0.000000003220
227      -0.000000010212
228       0.000000006374
229      -0.000000003059
230      -0.000000010387
231       0.000000007834
232       0.000000054392
233      -0.000000000185
234       0.000000017611
235       0.000000023039
236       0.000000009958
237       0.000000019144
238       0.000000037631
239       0.000000034189
240      -0.000000013402
241      -0.000000025913
242      -0.000000060208
243      -0.000000069794
244      -0.000000077306
245       0.000000011277
246       0.000000053720
247       0.000000136023
248       0.000000131984
249       0.000000155703
250      -0.000000010743
251      -0.000000098694
252      -0.000000243448
253      -0.000000240463
254      -0.000000284450
255       0.000000020203
256       0.000000127988
257       0.000000115462
258       0.000000353315
259       0.000000366104
260      -0.000000116779
261      -0.000000014862
262       0.000000927588
263      -0.000000238945
264      -0.000000031439
265       0.000000441384
266      -0.000000524174
267      -0.000002665381
268      -0.000001156192
269      -0.000001600550
270      -0.000000392824
271       0.000000118382
272       0.000000285263
273       0.000000256176
274       0.000000325067
275      -0.000000003019
276      -0.000000004004
277      -0.000000004232
278      -0.000000006023
279       0.000000009115
280      -0.000000013540
281      -0.000000008250
282       0.000000005300
283       0.000000012668
284       0.000000013731
285       0.000000017160
286      -0.000000027289
287       0.000000040223
288       0.000000024068
289      -0.000000014459
290      -0.000000028816
291      -0.000000031631
292      -0.000000036701
293       0.000000060950
294      -0.000000089772
295      -0.000000052485
296       0.000000030285
297       0.000000060350
298       0.000000067420
299       0.000000072644
300      -0.000000124152
301       0.000000181314
302       0.000000105058
303      -0.000000058163
304      -0.000000133662
305      -0.000000159097
306      -0.000000131461
307       0.000000235292
308      -0.000000323798
309      -0.000000193220
310       0.000000087126
311       0.000000318819
312       0.000000442876
313       0.000000100568
314      -0.000000263065
315       0.000000204450
316       0.000000177996
317       0.000000095509
318      -0.000000133947
319      -0.000000288239
320       0.000000131826
321      -0.000000223722
322       0.000000646001
323       0.000000221108
324      -0.000000325961
325      -0.000000025804
326       0.000000120876
327      -0.000000241733
328       0.000001030148
329       0.000002367617
330       0.000005829052
331      -0.000000069024
332      -0.000000013675
333      -0.000000052904
334       0.000000613493
335       0.000000020670
336       0.000000439006
337      -0.000001500744
338      -0.000000201915
339      -0.000001082479
340      -0.000000019373
341      -0.000000016394
342      -0.000000003952
343      -0.000000018585
344       0.000000012630
345       0.000000016063
346      -0.000000444067
347       0.000000026561
348      -0.000000254916
349      -0.000000015192
350      -0.000000044902
351       0.000000033936
352       0.000000002658
353       0.000000071116
354       0.000000006089
355      -0.000000036783
356      -0.000000008552
357      -0.000000025695
358       0.000000120376
359      -0.000000240790
360       0.000001026655
361       0.000002356086
362       0.000005803264
363       0.000000057916
364       0.000000018466
365       0.000000063426
366      -0.000000457900
367      -0.000000249450
368      -0.000000541031
369       0.000001171710
370       0.000000469652
371       0.000001357408
372       0.000000004031
373      -0.000000008369
374      -0.000000022276
375      -0.000000019777
376      -0.000000013691
377      -0.000000117907
378      -0.000000406325
379      -0.000000196622
380      -0.000000066009
381      -0.000000201334
382       0.000000016468
383      -0.000000062620
384      -0.000000027336
385      -0.000000038576
386      -0.000000053994
387      -0.000000000384
388       0.000000019041
 Sym=     1a
 Ene= -8.04604884381274E+02
 Spin= Alpha
 Occup= 2.000000
  1      -0.000000024951
  2       0.000000029841
  3      -0.000000033257
  4       0.000000281126
  5       0.000000716381
  6       0.000000945533
  7       0.000002095312
  8       0.000000405420
  9       0.000000053886
 10      -0.000000031450
 11      -0.000000050581
 12      -0.000000376437
 13       0.000000215794
 14       0.000000358582
 15      -0.000000005972
 16      -0.000000201996
 17       0.000000090194
 18      -0.000000056309
 19       0.000000053743
 20       0.000000044426
 21       0.000000008834
 22       0.000000265630
 23      -0.000000102293
 24      -0.000000004977
 25       0.000000161740
 26      -0.000000140493
 27      -0.000001705561
 28       0.000000142644
 29      -0.000000302661
 30      -0.000000731259
 31       0.000000102599
 32       0.000000128609
 33       0.000000082856
 34      -0.000000087982
 35       0.000000070098
 36       0.000000106651
 37      -0.000000022323
 38      -0.000000053915
 39       0.000000251482
 40      -0.000000454437
 41       0.000001071299
 42       0.000002988300
 43       0.000005511451
 44      -0.000000019140
 45       0.000000101913
 46      -0.000000006500
 47       0.000000639275
 48      -0.000000734621
 49      -0.000000502208
 50       0.000001140037
 51       0.000002252040
 52      -0.000001862529
 53       0.000000052625
 54      -0.000000055144
 55      -0.000000037178
 56       0.000000057169
 57       0.000000053717
 58       0.000000028448
 59      -0.000000180670
 60       0.000000101043
 61       0.000000072219
 62      -0.000000106613
 63      -0.000000066396
 64      -0.000000174249
 65      -0.000000038714
 66       0.000000108533
 67       0.000000030622
 68      -0.000000002524
 69      -0.000000003402
 70      -0.000000058306
 71       0.000000272458
 72      -0.000000493955
 73       0.000001173085
 74       0.000002886863
 75       0.000004916069
 76      -0.000000033390
 77      -0.000000068555
 78       0.000000055723
 79       0.000000676885
 80      -0.000000186104
 81      -0.000000693420
 82      -0.000000025601
 83      -0.000002322266
 84       0.000000665380
 85      -0.000000059405
 86       0.000000016874
 87       0.000000043175
 88      -0.000000070120
 89      -0.000000075253
 90       0.000000002224
 91      -0.000000034842
 92       0.000000076064
 93       0.000000038547
 94      -0.000000062108
 95      -0.000000070434
 96       0.000000022185
 97      -0.000000093730
 98      -0.000000002267
 99      -0.000000133003
100      -0.000000163487
101       0.000000051859
102       0.000000027644
103      -0.000000129135
104       0.000000241718
105      -0.000000710702
106      -0.000001881788
107      -0.000001697752
108      -0.000000031971
109       0.000000041528
110       0.000000059951
111       0.000000335554
112      -0.000000237335
113      -0.000000277730
114      -0.000000616219
115       0.000000148511
116      -0.000000064901
117       0.000000012849
118       0.000000024632
119       0.000000023564
120       0.000000021502
121      -0.000000001606
122      -0.000000079906
123      -0.000000144023
124      -0.000000068884
125      -0.000000037584
126      -0.000000050521
127       0.000000006430
128      -0.000000011218
129      -0.000000003619
130      -0.000000014471
131      -0.000000001748
132       0.000000004047
133       0.000000010761
134       0.000000027855
135      -0.000000130164
136       0.000000243790
137      -0.000000719750
138      -0.000001912988
139      -0.000001681953
140      -0.000000064784
141       0.000000032960
142       0.000000029444
143       0.000000298647
144      -0.000000248507
145      -0.000000315443
146       0.000000054391
147       0.000000312514
148       0.000000542402
149       0.000000003009
150       0.000000023013
151       0.000000020012
152       0.000000028242
153      -0.000000003005
154       0.000000025705
155      -0.000000137360
156      -0.000000010275
157      -0.000000119317
158      -0.000000020301
159      -0.000000003329
160       0.000000012068
161      -0.000000003088
162       0.000000013683
163       0.000000012038
164      -0.000000005548
165      -0.000000002780
166       0.035877044768
167       0.029713831614
168       0.049764796691
169       0.086683074392
170       0.138726632738
171       0.177777369461
172       0.072230416162
173      -0.369140327047
174      -0.610967710446
175      -0.169952011594
176       0.002093781509
177      -0.001805042721
178       0.000970444921
179      -0.000506606997
180       0.000289472952
181      -0.000191691017
182       0.000132663255
183      -0.000081223250
184       0.000015964659
185      -0.000008148226
186       0.000002509319
187      -0.000000061236
188       0.000001264547
189      -0.000000279677
190      -0.000000357188
191       0.000002148975
192      -0.000000197899
193      -0.000000811420
194       0.000004050032
195      -0.000000219548
196      -0.000000530897
197       0.000002722311
198      -0.000000166274
199       0.000000138629
200       0.000000124831
201      -0.000000187448
202      -0.000000086465
203       0.000000184406
204       0.000000043783
205       0.000000185637
206      -0.000000171102
207      -0.000000154992
208      -0.000000215894
209       0.000000195436
210       0.000000179726
211       0.000000256210
212      -0.000000359651
213      -0.000000175434
214      -0.000000277178
215       0.000000806996
216       0.000000066735
217      -0.000000802625
218      -0.000000969745
219       0.000001175703
220       0.000004561131
221       0.000000912436
222      -0.000005325392
223      -0.000001389362
224       0.000000574478
225       0.000001371795
226       0.000000358631
227       0.000001626000
228      -0.000000129838
229       0.000000656298
230       0.000000882502
231       0.000000539085
232       0.000002699574
233       0.000000764952
234       0.000001453416
235       0.000000703536
236      -0.000000145137
237      -0.000000577091
238      -0.000000077728
239      -0.000000317421
240      -0.000000237112
241       0.000000058899
242       0.000000378812
243       0.000000008639
244       0.000000134157
245       0.000000156681
246       0.000000056295
247      -0.000000013618
248       0.000000182524
249       0.000000166169
250      -0.000000090711
251      -0.000000209388
252      -0.000000484485
253      -0.000000529798
254      -0.000000608852
255       0.000000066830
256       0.000000266809
257       0.000000098221
258       0.000000769937
259       0.000000762944
260      -0.000000310823
261      -0.000000025169
262       0.000002221516
263      -0.000000527186
264      -0.000000039098
265       0.000001033006
266      -0.000001232768
267      -0.000006293875
268      -0.000002770065
269      -0.000003789858
270      -0.000000894445
271       0.000000282576
272       0.000000684861
273       0.000000610352
274       0.000000775828
275      -0.000000005191
276       0.000000020846
277       0.000000007574
278       0.000000106500
279      -0.000000119298
280       0.000000195510
281       0.000000127237
282      -0.000000122306
283       0.000000023312
284       0.000000030757
285       0.000000006903
286      -0.000000016846
287       0.000000013442
288       0.000000013258
289       0.000000007569
290      -0.000000068629
291      -0.000000077567
292      -0.000000082294
293       0.000000129022
294      -0.000000182009
295      -0.000000115100
296       0.000000062082
297       0.000000139478
298       0.000000158910
299       0.000000157772
300      -0.000000273117
301       0.000000392324
302       0.000000229411
303      -0.000000120203
304      -0.000000310049
305      -0.000000373817
306      -0.000000290151
307       0.000000530991
308      -0.000000721578
309      -0.000000429986
310       0.000000182860
311       0.000000741886
312       0.000001036222
313       0.000000223846
314      -0.000000604885
315       0.000000455968
316       0.000000400675
317       0.000000235041
318      -0.000000292521
319      -0.000000660263
320       0.000000324820
321      -0.000000543187
322       0.000001553372
323       0.000000547737
324      -0.000000769061
325      -0.000000054124
326       0.000000265427
327      -0.000000537779
328       0.000002374209
329       0.000005572405
330       0.000013801082
331      -0.000000148717
332      -0.000000031528
333      -0.000000112594
334       0.000001432995
335       0.000000053491
336       0.000001032117