[Molden Format]
[Title]
 Molden file created by orca_2mkl for BaseName=/data01/Nikolayandreadi/heavy/cations/Np_6+

[Atoms] AU
Np   1  93          0.0415890928         1.5388172189        -3.6027401976 
[GTO]
  1 0
s   9 1.0 
 60212393.7825810015     16460.1280594584
 27369269.9011729993     -6013.5086094560
 12440577.2278060000      9343.9211279925
  5654807.8308210000       308.3663916485
  2570367.1958280001      4334.3325603517
  1168348.7253759999      1972.8827387435
   531067.6024440000      2728.3967901233
   241394.3647470000      2034.2792369220
   109724.7112490000      2086.3436128711
s   1 1.0 
    49874.8687490000      2378.6000111367
s   1 1.0 
    22670.3948860000      1316.7532712607
s   1 1.0 
    10304.7249480000       728.9326365214
s   1 1.0 
     4683.9658860000       403.5249429308
s   1 1.0 
     2129.0754030000       223.3846742626
s   1 1.0 
      967.7615470000       123.6620277677
s   1 1.0 
      439.8916120000        68.4572348252
s   1 1.0 
      199.9507330000        37.8967827997
s   1 1.0 
       90.8866970000        20.9790265547
s   1 1.0 
       41.3121350000        11.6136389953
s   1 1.0 
       18.7782430000         6.4291166887
s   1 1.0 
        8.5355650000         3.5590517075
s   1 1.0 
        3.8798020000         1.9702315267
s   1 1.0 
        1.7635460000         1.0906871246
s   1 1.0 
        0.8016120000         0.6037862931
s   1 1.0 
        0.3643690000         0.3342459531
s   1 1.0 
        0.1656220000         0.1850327531
s   1 1.0 
        0.0752830000         0.1024313225
s   1 1.0 
        0.0342190000         0.0567035929
s   1 1.0 
        0.0155540000         0.0313900251
p   8 1.0 
   859302.8310040000    131775.7051530663
   358042.8462520000     11325.8407160590
   149184.5192720000     38266.0812549783
    62160.2163630000     19009.8155098714
    25900.0901510000     18342.5702252260
    10791.7042300000     14732.4699955005
     4496.5434290000     13756.3118120073
     1873.5597620000     12431.3284313481
p   1 1.0 
      780.6499010000      5881.8029941886
p   1 1.0 
      325.2707920000      1969.0031994381
p   1 1.0 
      135.5294970000       659.1471384521
p   1 1.0 
       56.4706240000       220.6573109288
p   1 1.0 
       23.5294270000        73.8676489948
p   1 1.0 
        9.8039280000        24.7280704473
p   1 1.0 
        4.0849700000         8.2780143929
p   1 1.0 
        1.7020710000         2.7711636791
p   1 1.0 
        0.7091960000         0.9276794468
p   1 1.0 
        0.2954980000         0.3105512418
p   1 1.0 
        0.1231240000         0.1039605296
p   1 1.0 
        0.0513020000         0.0348023010
d   7 1.0 
    42129.4422870000     56906.5227948507
    16851.7769150000     28000.6591442440
     6740.7107660000     31059.1451506409
     2696.2843060000     28550.8495479176
     1078.5137230000     30419.9475915360
      431.4054890000     27516.9214778059
      172.5621960000     18646.3556919396
d   1 1.0 
       69.0248780000      4712.2678372904
d   1 1.0 
       27.6099510000       948.0580852984
d   1 1.0 
       11.0439810000       190.7392068921
d   1 1.0 
        4.4175920000        38.3746907348
d   1 1.0 
        1.7670370000         7.7205805666
d   1 1.0 
        0.7068150000         1.5532993453
d   1 1.0 
        0.2827260000         0.3125072837
d   1 1.0 
        0.1130900000         0.0628727477
d   1 1.0 
        0.0452360000         0.0126493272
f   6 1.0 
     4574.1842730000     62886.0548377263
     1759.3016440000     54541.2436081452
      676.6544780000     60258.2175061621
      260.2517220000     58997.4055482529
      100.0968160000     42811.8352412536
       38.4987760000     17381.1576470009
f   1 1.0 
       14.8072210000      2452.2547560014
f   1 1.0 
        5.6950850000       285.6771815775
f   1 1.0 
        2.1904170000        33.2801582217
f   1 1.0 
        0.8424680000         3.8769951722
f   1 1.0 
        0.3240260000         0.4516528586
f   1 1.0 
        0.1246250000         0.0526152593

[5D]
[7F]
[9G]
[MO]
 Sym=     1a
 Ene= -4.37611382720935E+03
 Spin= Alpha
 Occup= 1.000000
  1       0.087306278461
  2       0.066328066942
  3       0.113242376572
  4       0.178787473078
  5       0.264675728319
  6       0.301327390653
  7       0.190682248692
  8       0.031598411702
  9       0.000892619880
 10      -0.000634182521
 11       0.000461732480
 12      -0.000340589786
 13       0.000241718195
 14      -0.000162635167
 15       0.000107504628
 16      -0.000070659610
 17       0.000045576885
 18      -0.000028190881
 19       0.000015928119
 20      -0.000007294426
 21       0.000001965011
 22      -0.000000000000
 23       0.000000000000
 24       0.000000000000
 25      -0.000000000000
 26      -0.000000000000
 27      -0.000000000000
 28       0.000000000000
 29       0.000000000000
 30       0.000000000000
 31      -0.000000000000
 32      -0.000000000000
 33      -0.000000000000
 34       0.000000000000
 35       0.000000000000
 36       0.000000000000
 37      -0.000000000000
 38      -0.000000000000
 39      -0.000000000000
 40       0.000000000000
 41       0.000000000000
 42       0.000000000000
 43      -0.000000000000
 44      -0.000000000000
 45      -0.000000000000
 46       0.000000000000
 47       0.000000000000
 48       0.000000000000
 49      -0.000000000000
 50      -0.000000000000
 51       0.000000000000
 52       0.000000000000
 53      -0.000000000000
 54      -0.000000000000
 55      -0.000000000000
 56       0.000000000000
 57       0.000000000000
 58       0.000000000000
 59      -0.000000000000
 60      -0.000000000000
 61      -0.000000039268
 62      -0.000000002029
 63      -0.000000014558
 64      -0.000000066834
 65       0.000000019305
 66       0.000000031516
 67       0.000000001627
 68       0.000000011685
 69       0.000000053640
 70      -0.000000015495
 71      -0.000000020897
 72      -0.000000001080
 73      -0.000000007747
 74      -0.000000035566
 75       0.000000010274
 76       0.000000012093
 77       0.000000000625
 78       0.000000004483
 79       0.000000020582
 80      -0.000000005945
 81      -0.000000006449
 82      -0.000000000333
 83      -0.000000002391
 84      -0.000000010975
 85       0.000000003170
 86       0.000000003641
 87       0.000000000188
 88       0.000000001350
 89       0.000000006197
 90      -0.000000001790
 91      -0.000000002133
 92      -0.000000000110
 93      -0.000000000791
 94      -0.000000003630
 95       0.000000001049
 96       0.000000001113
 97       0.000000000058
 98       0.000000000413
 99       0.000000001894
100      -0.000000000547
101      -0.000000000534
102      -0.000000000028
103      -0.000000000198
104      -0.000000000909
105       0.000000000262
106       0.000000000180
107       0.000000000009
108       0.000000000067
109       0.000000000306
110      -0.000000000089
111      -0.000000000000
112       0.000000000000
113      -0.000000000000
114      -0.000000000000
115       0.000000000000
116       0.000000000000
117       0.000000000003
118       0.000000000000
119      -0.000000000000
120      -0.000000000000
121       0.000000000000
122       0.000000000000
123      -0.000000000000
124      -0.000000000001
125       0.000000000000
126       0.000000000000
127       0.000000000000
128      -0.000000000000
129      -0.000000000000
130       0.000000000000
131      -0.000000000002
132      -0.000000000000
133      -0.000000000000
134      -0.000000000000
135       0.000000000000
136       0.000000000000
137      -0.000000000000
138       0.000000000001
139       0.000000000000
140       0.000000000000
141       0.000000000000
142      -0.000000000000
143       0.000000000000
144      -0.000000000000
145      -0.000000000001
146      -0.000000000000
147       0.000000000000
148      -0.000000000000
149       0.000000000000
150      -0.000000000000
151      -0.000000000000
152       0.000000000001
153       0.000000000000
154      -0.000000000000
155      -0.000000000000
156      -0.000000000000
157      -0.000000000000
158       0.000000000000
159      -0.000000000000
 Sym=     1a
 Ene= -8.31803238807105E+02
 Spin= Alpha
 Occup= 1.000000
  1      -0.037061219210
  2      -0.030425401395
  3      -0.050705326792
  4      -0.087782726955
  5      -0.139374658055
  6      -0.176532940849
  7      -0.067159493869
  8       0.374907286221
  9       0.607134343545
 10       0.165222262500
 11      -0.001958652478
 12       0.001578411761
 13      -0.000814313449
 14       0.000401797819
 15      -0.000212640941
 16       0.000130007693
 17      -0.000081838445
 18       0.000049653554
 19      -0.000027850704
 20       0.000012712589
 21      -0.000003419535
 22      -0.000000000000
 23       0.000000000000
 24       0.000000000000
 25      -0.000000000001
 26      -0.000000000000
 27       0.000000000000
 28      -0.000000000000
 29       0.000000000000
 30       0.000000000000
 31      -0.000000000001
 32       0.000000000000
 33       0.000000000000
 34       0.000000000000
 35      -0.000000000000
 36       0.000000000000
 37      -0.000000000000
 38       0.000000000000
 39      -0.000000000000
 40       0.000000000001
 41      -0.000000000000
 42      -0.000000000000
 43      -0.000000000001
 44      -0.000000000000
 45       0.000000000000
 46       0.000000000001
 47      -0.000000000000
 48      -0.000000000000
 49      -0.000000000000
 50       0.000000000000
 51       0.000000000000
 52       0.000000000000
 53      -0.000000000001
 54      -0.000000000000
 55      -0.000000000001
 56       0.000000000004
 57       0.000000000001
 58       0.000000000000
 59      -0.000000000003
 60      -0.000000000000
 61      -0.000002737990
 62      -0.000000141388
 63      -0.000001015098
 64      -0.000004660030
 65       0.000001346101
 66      -0.000000436442
 67      -0.000000022479
 68      -0.000000161818
 69      -0.000000742805
 70       0.000000214579
 71       0.000000291380
 72       0.000000015042
 73       0.000000108028
 74       0.000000495929
 75      -0.000000143254
 76      -0.000000108261
 77      -0.000000005577
 78      -0.000000040139
 79      -0.000000184259
 80       0.000000053227
 81       0.000000035706
 82       0.000000001832
 83       0.000000013239
 84       0.000000060769
 85      -0.000000017556
 86      -0.000000026101
 87      -0.000000001347
 88      -0.000000009674
 89      -0.000000044421
 90       0.000000012832
 91       0.000000016896
 92       0.000000000869
 93       0.000000006263
 94       0.000000028755
 95      -0.000000008307
 96      -0.000000008519
 97      -0.000000000438
 98      -0.000000003160
 99      -0.000000014501
100       0.000000004191
101       0.000000004064
102       0.000000000210
103       0.000000001508
104       0.000000006917
105      -0.000000002000
106      -0.000000001368
107      -0.000000000071
108      -0.000000000508
109      -0.000000002328
110       0.000000000673
111      -0.000000000000
112       0.000000000000
113       0.000000000000
114      -0.000000000000
115       0.000000000000
116       0.000000000000
117      -0.000000000001
118      -0.000000000000
119      -0.000000000000
120      -0.000000000000
121       0.000000000000
122      -0.000000000000
123      -0.000000000000
124       0.000000000011
125       0.000000000000
126       0.000000000000
127       0.000000000000
128      -0.000000000000
129       0.000000000000
130       0.000000000000
131      -0.000000000068
132       0.000000000000
133      -0.000000000000
134      -0.000000000000
135       0.000000000000
136      -0.000000000000
137      -0.000000000000
138       0.000000000046
139      -0.000000000000
140      -0.000000000000
141       0.000000000000
142      -0.000000000000
143      -0.000000000000
144       0.000000000000
145      -0.000000000024
146      -0.000000000000
147       0.000000000001
148      -0.000000000001
149       0.000000000001
150       0.000000000000
151      -0.000000000000
152       0.000000000022
153      -0.000000000000
154      -0.000000000001
155      -0.000000000002
156      -0.000000000000
157      -0.000000000000
158       0.000000000000
159      -0.000000000009
 Sym=     1a
 Ene= -6.96132235577091E+02
 Spin= Alpha
 Occup= 1.000000
  1      -0.000000000000
  2      -0.000000000000
  3      -0.000000000000
  4       0.000000000000
  5      -0.000000000000
  6      -0.000000000000
  7       0.000000000000
  8      -0.000000000000
  9       0.000000000001
 10      -0.000000000001
 11       0.000000000000
 12       0.000000000000
 13      -0.000000000000
 14       0.000000000000
 15      -0.000000000000
 16       0.000000000001
 17       0.000000000000
 18      -0.000000000002
 19       0.000000000003
 20      -0.000000000002
 21       0.000000000000
 22       0.025071390163
 23       0.177167824354
 24      -0.018903649949
 25       0.042383076591
 26       0.299501440502
 27      -0.031956538447
 28       0.063592441545
 29       0.449378133441
 30      -0.047948248844
 31       0.033291120724
 32       0.235252827609
 33      -0.025101268356
 34       0.001089137189
 35       0.007696424666
 36      -0.000821201697
 37       0.000608736961
 38       0.004301660287
 39      -0.000458983342
 40      -0.000420674184
 41      -0.002972708318
 42       0.000317185344
 43       0.000258424230
 44       0.001826163542
 45      -0.000194850032
 46      -0.000155088097
 47      -0.001095935272
 48       0.000116935323
 49       0.000091826694
 50       0.000648896434
 51      -0.000069236675
 52      -0.000051333077
 53      -0.000362746925
 54       0.000038704775
 55       0.000024810874
 56       0.000175326881
 57      -0.000018707223
 58      -0.000007765700
 59      -0.000054876579
 60       0.000005855282
 61      -0.000000000001
 62      -0.000000000001
 63      -0.000000000000
 64       0.000000000001
 65       0.000000000002
 66       0.000000000001
 67       0.000000000000
 68       0.000000000000
 69      -0.000000000002
 70      -0.000000000001
 71      -0.000000000001
 72      -0.000000000000
 73      -0.000000000000
 74       0.000000000013
 75       0.000000000001
 76       0.000000000002
 77       0.000000000000
 78      -0.000000000001
 79      -0.000000000010
 80      -0.000000000001
 81       0.000000000000
 82      -0.000000000002
 83      -0.000000000002
 84       0.000000000006
 85      -0.000000000000
 86      -0.000000000013
 87       0.000000000009
 88       0.000000000013
 89      -0.000000000003
 90       0.000000000003
 91       0.000000000011
 92      -0.000000000008
 93      -0.000000000011
 94       0.000000000002
 95      -0.000000000002
 96      -0.000000000006
 97       0.000000000004
 98       0.000000000006
 99      -0.000000000001
100       0.000000000001
101       0.000000000003
102      -0.000000000002
103      -0.000000000003
104       0.000000000001
105      -0.000000000001
106      -0.000000000001
107       0.000000000001
108       0.000000000001
109      -0.000000000000
110       0.000000000000
111       0.000000450705
112      -0.000000235137
113      -0.000001660177
114       0.000000563758
115      -0.000000161449
116       0.000000927645
117       0.000002067190
118      -0.000000283188
119       0.000000147683
120       0.000001042932
121      -0.000000354048
122       0.000000101655
123      -0.000000582724
124      -0.000001298650
125       0.000000161591
126      -0.000000084257
127      -0.000000595073
128       0.000000201988
129      -0.000000058052
130       0.000000332483
131       0.000000740984
132      -0.000000083763
133       0.000000043684
134       0.000000308491
135      -0.000000104727
136       0.000000030063
137      -0.000000172366
138      -0.000000384127
139       0.000000041119
140      -0.000000021443
141      -0.000000151432
142       0.000000051406
143      -0.000000014763
144       0.000000084610
145       0.000000188560
146      -0.000000018962
147       0.000000009888
148       0.000000069832
149      -0.000000023706
150       0.000000006808
151      -0.000000039018
152      -0.000000086953
153       0.000000006582
154      -0.000000003432
155      -0.000000024239
156       0.000000008228
157      -0.000000002363
158       0.000000013543
159       0.000000030181
 Sym=     1a
 Ene= -6.96127759961685E+02
 Spin= Alpha
 Occup= 1.000000
  1       0.000000000000
  2       0.000000000000
  3       0.000000000000
  4      -0.000000000000
  5       0.000000000000
  6      -0.000000000000
  7       0.000000000000
  8      -0.000000000000
  9      -0.000000000001
 10       0.000000000001
 11      -0.000000000002
 12       0.000000000002
 13      -0.000000000002
 14       0.000000000002
 15      -0.000000000003
 16       0.000000000006
 17      -0.000000000001
 18      -0.000000000012
 19       0.000000000028
 20      -0.000000000024
 21       0.000000000004
 22      -0.128710334879
 23       0.004808452715
 24      -0.125639435992
 25      -0.217584457207
 26       0.008128675720
 27      -0.212393111321
 28      -0.326467689020
 29       0.012196413343
 30      -0.318678498948
 31      -0.170903085210
 32       0.006384719646
 33      -0.166825509813
 34      -0.005590639987
 35       0.000208859126
 36      -0.005457252944
 37      -0.003126382381
 38       0.000116797628
 39      -0.003051790052
 40       0.002159899193
 41      -0.000080691058
 42       0.002108366178
 43      -0.001326656505
 44       0.000049562182
 45      -0.001295003819
 46       0.000796289027
 47      -0.000029748337
 48       0.000777290373
 49      -0.000471475647
 50       0.000017613730
 51      -0.000460226712
 52       0.000263564404
 53      -0.000009846432
 54       0.000257276022
 55      -0.000127389365
 56       0.000004759107
 57      -0.000124349982
 58       0.000039872402
 59      -0.000001489584
 60       0.000038921086
 61       0.000000000001
 62       0.000000000000
 63       0.000000000000
 64      -0.000000000000
 65      -0.000000000001
 66       0.000000000003
 67       0.000000000001
 68      -0.000000000002
 69       0.000000000000
 70      -0.000000000002
 71      -0.000000000013
 72      -0.000000000000
 73       0.000000000008
 74      -0.000000000003
 75       0.000000000005
 76       0.000000000071
 77      -0.000000000004
 78      -0.000000000040
 79       0.000000000003
 80      -0.000000000021
 81      -0.000000000059
 82       0.000000000004
 83       0.000000000034
 84      -0.000000000000
 85       0.000000000019
 86       0.000000000037
 87      -0.000000000005
 88      -0.000000000023
 89      -0.000000000006
 90      -0.000000000013
 91      -0.000000000021
 92       0.000000000003
 93       0.000000000011
 94       0.000000000028
 95       0.000000000009
 96       0.000000000011
 97      -0.000000000001
 98      -0.000000000005
 99      -0.000000000023
100      -0.000000000006
101      -0.000000000005
102       0.000000000001
103       0.000000000002
104       0.000000000012
105       0.000000000003
106       0.000000000002
107      -0.000000000000
108      -0.000000000001
109      -0.000000000005
110      -0.000000000001
111       0.000000703018
112       0.000000337792
113       0.000000303424
114       0.000000949007
115      -0.000000061268
116      -0.000001132941
117       0.000000373639
118      -0.000000581284
119      -0.000000279291
120      -0.000000250719
121      -0.000000784067
122       0.000000050466
123       0.000000936215
124      -0.000000308746
125       0.000000360511
126       0.000000173224
127       0.000000155457
128       0.000000486183
129      -0.000000031308
130      -0.000000580562
131       0.000000191459
132      -0.000000168134
133      -0.000000080792
134      -0.000000072514
135      -0.000000226802
136       0.000000014628
137       0.000000270815
138      -0.000000089312
139       0.000000085760
140       0.000000041209
141       0.000000036985
142       0.000000115674
143      -0.000000007457
144      -0.000000138125
145       0.000000045552
146      -0.000000039387
147      -0.000000018926
148      -0.000000016987
149      -0.000000053127
150       0.000000003424
151       0.000000063437
152      -0.000000020921
153       0.000000013671
154       0.000000006570
155       0.000000005897
156       0.000000018440
157      -0.000000001188
158      -0.000000022019
159       0.000000007262
 Sym=     1a
 Ene= -6.96127757905534E+02
 Spin= Alpha
 Occup= 1.000000
  1       0.000000000000
  2       0.000000000000
  3       0.000000000000
  4       0.000000000000
  5      -0.000000000000
  6       0.000000000001
  7      -0.000000000000
  8      -0.000000000001
  9      -0.000000000001
 10      -0.000000000000
 11      -0.000000000000
 12       0.000000000000
 13      -0.000000000000
 14       0.000000000001
 15      -0.000000000002
 16       0.000000000004
 17      -0.000000000001
 18      -0.000000000008
 19       0.000000000018
 20      -0.000000000016
 21       0.000000000003
 22      -0.123206360293
 23       0.031029226716
 24       0.127405335242
 25      -0.208280003817
 26       0.052454820056
 27       0.215378359099
 28      -0.312507117219
 29       0.078704168907
 30       0.323157618977
 31      -0.163594841099
 32       0.041200968857
 33       0.169170288969
 34      -0.005351569930
 35       0.001347780066
 36       0.005533955863
 37      -0.002992691069
 38       0.000753702078
 39       0.003094684470
 40       0.002067536651
 41      -0.000520704153
 42      -0.002138000019
 43      -0.001269925356
 44       0.000319827659
 45       0.001313205467
 46       0.000762237767
 47      -0.000191967757
 48      -0.000788215464
 49      -0.000451314199
 50       0.000113662404
 51       0.000466695362
 52       0.000252293747
 53      -0.000063539579
 54      -0.000260892127
 55      -0.000121941885
 56       0.000030710774
 57       0.000126097765
 58       0.000038167361
 59      -0.000009612360
 60      -0.000039468136
 61       0.000000000003
 62       0.000000000001
 63       0.000000000001
 64      -0.000000000001
 65      -0.000000000004
 66       0.000000000001
 67      -0.000000000000
 68      -0.000000000002
 69       0.000000000002
 70       0.000000000000
 71      -0.000000000008
 72       0.000000000000
 73       0.000000000006
 74      -0.000000000017
 75       0.000000000002
 76       0.000000000048
 77      -0.000000000003
 78      -0.000000000028
 79       0.000000000014
 80      -0.000000000014
 81      -0.000000000044
 82       0.000000000005
 83       0.000000000027
 84      -0.000000000007
 85       0.000000000013
 86       0.000000000043
 87      -0.000000000015
 88      -0.000000000032
 89      -0.000000000001
 90      -0.000000000012
 91      -0.000000000029
 92       0.000000000011
 93       0.000000000022
 94       0.000000000017
 95       0.000000000009
 96       0.000000000015
 97      -0.000000000006
 98      -0.000000000011
 99      -0.000000000015
100      -0.000000000006
101      -0.000000000007
102       0.000000000003
103       0.000000000005
104       0.000000000008
105       0.000000000003
106       0.000000000002
107      -0.000000000001
108      -0.000000000002
109      -0.000000000003
110      -0.000000000001
111      -0.000000712412
112       0.000000237316
113      -0.000000389645
114      -0.000000848785
115       0.000000455227
116      -0.000001015928
117       0.000000592328
118       0.000000588903
119      -0.000000195844
120       0.000000322012
121       0.000000701852
122      -0.000000376408
123       0.000000839997
124      -0.000000489824
125      -0.000000365232
126       0.000000121410
127      -0.000000199703
128      -0.000000435317
129       0.000000233432
130      -0.000000520973
131       0.000000303808
132       0.000000170354
133      -0.000000056660
134       0.000000093156
135       0.000000203023
136      -0.000000108862
137       0.000000242974
138      -0.000000141685
139      -0.000000086889
140       0.000000028894
141      -0.000000047513
142      -0.000000103556
143       0.000000055528
144      -0.000000123933
145       0.000000072270
146       0.000000039906
147      -0.000000013270
148       0.000000021821
149       0.000000047560
150      -0.000000025503
151       0.000000056919
152      -0.000000033192
153      -0.000000013851
154       0.000000004607
155      -0.000000007574
156      -0.000000016508
157       0.000000008852
158      -0.000000019756
159       0.000000011521
 Sym=     1a
 Ene= -2.16260334473762E+02
 Spin= Alpha
 Occup= 1.000000
  1      -0.018174120526
  2      -0.015146248025
  3      -0.025011333250
  4      -0.044471591409
  5      -0.070446037324
  6      -0.093727968783
  7      -0.022911146073
  8       0.301188429725
  9       0.689408518984
 10      -0.217630110411
 11      -0.982368408724
 12      -0.131922038629
 13      -0.020348823343
 14       0.015571217478
 15      -0.010946506164
 16       0.007478141064
 17      -0.004914681157
 18       0.003064343599
 19      -0.001738235412
 20       0.000797451091
 21      -0.000214983099
 22       0.000000000000
 23      -0.000000000000
 24       0.000000000001
 25       0.000000000001
 26      -0.000000000001
 27       0.000000000002
 28       0.000000000001
 29      -0.000000000000
 30       0.000000000002
 31       0.000000000002
 32      -0.000000000000
 33       0.000000000000
 34      -0.000000000008
 35       0.000000000003
 36      -0.000000000007
 37       0.000000000001
 38       0.000000000000
 39      -0.000000000002
 40      -0.000000000008
 41       0.000000000000
 42       0.000000000001
 43       0.000000000008
 44       0.000000000001
 45      -0.000000000001
 46      -0.000000000006
 47       0.000000000001
 48       0.000000000002
 49       0.000000000004
 50      -0.000000000005
 51      -0.000000000003
 52      -0.000000000004
 53       0.000000000015
 54       0.000000000004
 55       0.000000000007
 56      -0.000000000045
 57      -0.000000000008
 58      -0.000000000002
 59       0.000000000031
 60       0.000000000002
 61       0.000018427851
 62       0.000000951207
 63       0.000006832108
 64       0.000031363877
 65      -0.000009059899
 66       0.000041113566
 67       0.000002122338
 68       0.000015242786
 69       0.000069974623
 70      -0.000020213094
 71       0.000016151115
 72       0.000000834446
 73       0.000005987875
 74       0.000027489002
 75      -0.000007940429
 76      -0.000000559553
 77      -0.000000028961
 78      -0.000000207443
 79      -0.000000952322
 80       0.000000275087
 81       0.000001438537
 82       0.000000074250
 83       0.000000533342
 84       0.000002448343
 85      -0.000000707246
 86      -0.000000414620
 87      -0.000000021484
 88      -0.000000153723
 89      -0.000000705699
 90       0.000000203836
 91       0.000000316655
 92       0.000000016376
 93       0.000000117402
 94       0.000000538947
 95      -0.000000155675
 96      -0.000000157530
 97      -0.000000008174
 98      -0.000000058372
 99      -0.000000268080
100       0.000000077418
101       0.000000075209
102       0.000000003914
103       0.000000027859
104       0.000000128002
105      -0.000000036956
106      -0.000000025316
107      -0.000000001319
108      -0.000000009377
109      -0.000000043092
110       0.000000012440
111       0.000000000000
112      -0.000000000002
113      -0.000000000003
114       0.000000000001
115      -0.000000000004
116      -0.000000000002
117       0.000000000036
118       0.000000000000
119       0.000000000002
120       0.000000000003
121      -0.000000000001
122       0.000000000002
123       0.000000000003
124      -0.000000000084
125      -0.000000000000
126      -0.000000000001
127      -0.000000000002
128       0.000000000001
129      -0.000000000002
130      -0.000000000003
131       0.000000000573
132       0.000000000000
133       0.000000000000
134       0.000000000001
135      -0.000000000001
136       0.000000000001
137       0.000000000001
138      -0.000000000378
139      -0.000000000000
140       0.000000000001
141      -0.000000000002
142       0.000000000002
143       0.000000000001
144      -0.000000000001
145       0.000000000207
146       0.000000000003
147      -0.000000000014
148       0.000000000007
149      -0.000000000007
150      -0.000000000003
151       0.000000000003
152      -0.000000000226
153       0.000000000001
154       0.000000000008
155       0.000000000021
156       0.000000000003
157       0.000000000003
158      -0.000000000003
159       0.000000000094
 Sym=     1a
 Ene= -1.77976390630531E+02
 Spin= Alpha
 Occup= 1.000000
  1       0.000000000000
  2       0.000000000000
  3       0.000000000000
  4       0.000000000000
  5       0.000000000000
  6       0.000000000000
  7      -0.000000000000
  8      -0.000000000000
  9      -0.000000000002
 10       0.000000000001
 11       0.000000000004
 12      -0.000000000002
 13       0.000000000001
 14      -0.000000000002
 15       0.000000000004
 16      -0.000000000006
 17       0.000000000008
 18      -0.000000000020
 19       0.000000000023
 20      -0.000000000012
 21       0.000000000003
 22      -0.014042780289
 23      -0.099233547009
 24       0.010588131300
 25      -0.025495964278
 26      -0.180167667495
 27       0.019223730048
 28      -0.038842659554
 29      -0.274482317834
 30       0.029287019446
 31       0.017441162329
 32       0.123248271751
 33      -0.013150481097
 34       0.103453613210
 35       0.731056726244
 36      -0.078003103187
 37       0.035065870397
 38       0.247793573615
 39      -0.026439354094
 40      -0.001049276259
 41      -0.007414728769
 42       0.000791144964
 43       0.000811440519
 44       0.005734058271
 45      -0.000611818924
 46      -0.000460885472
 47      -0.003256855084
 48       0.000347503543
 49       0.000258828139
 50       0.001829013495
 51      -0.000195154114
 52      -0.000142507232
 53      -0.001007029812
 54       0.000107449185
 55       0.000068556290
 56       0.000484454214
 57      -0.000051690832
 58      -0.000021420680
 59      -0.000151369608
 60       0.000016151002
 61       0.000000000001
 62      -0.000000000001
 63       0.000000000004
 64       0.000000000003