[Molden Format]
[Title]
 Molden file created by orca_2mkl for BaseName=/home/nikolayandreadi_2125/_scratch/CC/UF6

[Atoms] AU
U    1  92          0.0000321253        -0.0000529123        -0.0002003110 
F    2   9         -0.0000302356         0.0000491329         3.7747903135 
F    3   9         -0.0000340151         0.0000623610        -3.7752457375 
F    4   9         -0.0000264562        -3.7750775518         0.0001662959 
F    5   9         -0.0000264562         3.7749603888         0.0001530678 
F    6   9         -3.7749755066         0.0000283459         0.0001662959 
F    7   9          3.7750605443         0.0000283459         0.0001681856 
[GTO]
  1 0
s   9 1.0 
 58915269.2040619999     15878.5363952950
 26779667.8200279996     -5784.7557541551
 12172576.2818310000      9027.3946318877
  5532989.2190140001       325.6868040056
  2514995.0995519999      4208.1243710139
  1143179.5907050001      1939.1491289669
   519627.0866840000      2669.4311026285
   236194.1303110000      2005.5172738201
   107360.9683230000      2058.9530636601
s   1 1.0 
    48800.4401470000      2340.0648682401
s   1 1.0 
    22182.0182490000      1295.4208592531
s   1 1.0 
    10082.7355680000       717.1233692609
s   1 1.0 
     4583.0616220000       396.9875296292
s   1 1.0 
     2083.2098280000       219.7656713216
s   1 1.0 
      946.9135580000       121.6586080998
s   1 1.0 
      430.4152540000        67.3481752053
s   1 1.0 
      195.6432970000        37.2828258248
s   1 1.0 
       88.9287710000        20.6391501245
s   1 1.0 
       40.4221690000        11.4254891526
s   1 1.0 
       18.3737130000         6.3249600754
s   1 1.0 
        8.3516880000         3.5013924304
s   1 1.0 
        3.7962220000         1.9383124866
s   1 1.0 
        1.7255550000         1.0730172334
s   1 1.0 
        0.7843430000         0.5940043302
s   1 1.0 
        0.3565200000         0.3288311987
s   1 1.0 
        0.1620540000         0.1820350044
s   1 1.0 
        0.0736610000         0.1007716339
s   1 1.0 
        0.0334820000         0.0557851540
s   1 1.0 
        0.0152190000         0.0308815919
p   8 1.0 
   839813.6669700000    124700.6825327761
   349922.3612380000     10799.0830937165
   145800.9838490000     36359.2991195727
    60750.4099370000     18163.2607860982
    25312.6708070000     17573.6487977577
    10546.9461700000     14195.6918408552
     4394.5609040000     13322.9302572221
     1831.0670430000     12107.7084625556
p   1 1.0 
      762.9446010000      5715.5278197986
p   1 1.0 
      317.8935840000      1913.3406184205
p   1 1.0 
      132.4556600000       640.5134283167
p   1 1.0 
       55.1898580000       214.4194529751
p   1 1.0 
       22.9957740000        71.7794502225
p   1 1.0 
        9.5815730000        24.0290224861
p   1 1.0 
        3.9923220000         8.0439996005
p   1 1.0 
        1.6634670000         2.6928231053
p   1 1.0 
        0.6931110000         0.9014540144
p   1 1.0 
        0.2887960000         0.3017720791
p   1 1.0 
        0.1203320000         0.1010221266
p   1 1.0 
        0.0501380000         0.0338180721
d   7 1.0 
    41049.8202270000     53262.0337640016
    16419.9280910000     26338.4031025142
     6567.9712360000     29332.4246479962
     2627.1884950000     27101.6066256769
     1050.8753980000     28990.3214062957
      420.3501590000     26289.6282344813
      168.1400640000     17820.8132210096
d   1 1.0 
       67.2560250000      4502.9764563892
d   1 1.0 
       26.9024100000       905.9509006942
d   1 1.0 
       10.7609640000       182.2676717095
d   1 1.0 
        4.3043860000        36.6703201328
d   1 1.0 
        1.7217540000         7.3776748265
d   1 1.0 
        0.6887020000         1.4843111023
d   1 1.0 
        0.2754810000         0.2986279634
d   1 1.0 
        0.1101920000         0.0600803838
d   1 1.0 
        0.0440770000         0.0120876293
f   6 1.0 
     4391.9602590000     58042.2322349557
     1689.2154840000     50234.6786083959
      649.6982630000     55932.1636963999
      249.8839470000     54589.9728655915
       96.1092110000     39385.8448814677
       36.9650810000     15829.5183325708
f   1 1.0 
       14.2173390000      2237.9031973610
f   1 1.0 
        5.4682070000       260.7061095750
f   1 1.0 
        2.1031570000        30.3711607432
f   1 1.0 
        0.8089060000         3.5381049160
f   1 1.0 
        0.3111180000         0.4121749941
f   1 1.0 
        0.1196610000         0.0480168308

  2 0
s   6 1.0 
    35479.1004410000         1.9229128581
     5318.4728983000         2.2734773358
     1210.4810975000         3.4747482552
      342.8551814000         5.2879612972
      112.0194318100         7.1666332516
       40.7147402500         7.7556346254
s   1 1.0 
       16.0396781100         5.7122450312
s   1 1.0 
        6.5038186700         2.9025947842
s   1 1.0 
        1.5440477500         0.9872011154
s   1 1.0 
        0.6122345300        -0.4932856223
s   1 1.0 
        0.2402798000         0.2445952611
p   4 1.0 
       80.2339004800         4.2755032106
       18.5940107400         4.7314752302
        5.6867902700         4.0864798013
        1.9511006300         2.2989954518
p   1 1.0 
        0.6697021100         0.8635593126
p   1 1.0 
        0.2165130000         0.2105208234
d   1 1.0 
        3.1070000000        20.7284714039
d   1 1.0 
        0.8550000000         2.1672588463
f   1 1.0 
        1.9170000000        24.6547062912

  3 0
s   6 1.0 
    35479.1004410000         1.9229128581
     5318.4728983000         2.2734773358
     1210.4810975000         3.4747482552
      342.8551814000         5.2879612972
      112.0194318100         7.1666332516
       40.7147402500         7.7556346254
s   1 1.0 
       16.0396781100         5.7122450312
s   1 1.0 
        6.5038186700         2.9025947842
s   1 1.0 
        1.5440477500         0.9872011154
s   1 1.0 
        0.6122345300        -0.4932856223
s   1 1.0 
        0.2402798000         0.2445952611
p   4 1.0 
       80.2339004800         4.2755032106
       18.5940107400         4.7314752302
        5.6867902700         4.0864798013
        1.9511006300         2.2989954518
p   1 1.0 
        0.6697021100         0.8635593126
p   1 1.0 
        0.2165130000         0.2105208234
d   1 1.0 
        3.1070000000        20.7284714039
d   1 1.0 
        0.8550000000         2.1672588463
f   1 1.0 
        1.9170000000        24.6547062912

  4 0
s   6 1.0 
    35479.1004410000         1.9229128581
     5318.4728983000         2.2734773358
     1210.4810975000         3.4747482552
      342.8551814000         5.2879612972
      112.0194318100         7.1666332516
       40.7147402500         7.7556346254
s   1 1.0 
       16.0396781100         5.7122450312
s   1 1.0 
        6.5038186700         2.9025947842
s   1 1.0 
        1.5440477500         0.9872011154
s   1 1.0 
        0.6122345300        -0.4932856223
s   1 1.0 
        0.2402798000         0.2445952611
p   4 1.0 
       80.2339004800         4.2755032106
       18.5940107400         4.7314752302
        5.6867902700         4.0864798013
        1.9511006300         2.2989954518
p   1 1.0 
        0.6697021100         0.8635593126
p   1 1.0 
        0.2165130000         0.2105208234
d   1 1.0 
        3.1070000000        20.7284714039
d   1 1.0 
        0.8550000000         2.1672588463
f   1 1.0 
        1.9170000000        24.6547062912

  5 0
s   6 1.0 
    35479.1004410000         1.9229128581
     5318.4728983000         2.2734773358
     1210.4810975000         3.4747482552
      342.8551814000         5.2879612972
      112.0194318100         7.1666332516
       40.7147402500         7.7556346254
s   1 1.0 
       16.0396781100         5.7122450312
s   1 1.0 
        6.5038186700         2.9025947842
s   1 1.0 
        1.5440477500         0.9872011154
s   1 1.0 
        0.6122345300        -0.4932856223
s   1 1.0 
        0.2402798000         0.2445952611
p   4 1.0 
       80.2339004800         4.2755032106
       18.5940107400         4.7314752302
        5.6867902700         4.0864798013
        1.9511006300         2.2989954518
p   1 1.0 
        0.6697021100         0.8635593126
p   1 1.0 
        0.2165130000         0.2105208234
d   1 1.0 
        3.1070000000        20.7284714039
d   1 1.0 
        0.8550000000         2.1672588463
f   1 1.0 
        1.9170000000        24.6547062912

  6 0
s   6 1.0 
    35479.1004410000         1.9229128581
     5318.4728983000         2.2734773358
     1210.4810975000         3.4747482552
      342.8551814000         5.2879612972
      112.0194318100         7.1666332516
       40.7147402500         7.7556346254
s   1 1.0 
       16.0396781100         5.7122450312
s   1 1.0 
        6.5038186700         2.9025947842
s   1 1.0 
        1.5440477500         0.9872011154
s   1 1.0 
        0.6122345300        -0.4932856223
s   1 1.0 
        0.2402798000         0.2445952611
p   4 1.0 
       80.2339004800         4.2755032106
       18.5940107400         4.7314752302
        5.6867902700         4.0864798013
        1.9511006300         2.2989954518
p   1 1.0 
        0.6697021100         0.8635593126
p   1 1.0 
        0.2165130000         0.2105208234
d   1 1.0 
        3.1070000000        20.7284714039
d   1 1.0 
        0.8550000000         2.1672588463
f   1 1.0 
        1.9170000000        24.6547062912

  7 0
s   6 1.0 
    35479.1004410000         1.9229128581
     5318.4728983000         2.2734773358
     1210.4810975000         3.4747482552
      342.8551814000         5.2879612972
      112.0194318100         7.1666332516
       40.7147402500         7.7556346254
s   1 1.0 
       16.0396781100         5.7122450312
s   1 1.0 
        6.5038186700         2.9025947842
s   1 1.0 
        1.5440477500         0.9872011154
s   1 1.0 
        0.6122345300        -0.4932856223
s   1 1.0 
        0.2402798000         0.2445952611
p   4 1.0 
       80.2339004800         4.2755032106
       18.5940107400         4.7314752302
        5.6867902700         4.0864798013
        1.9511006300         2.2989954518
p   1 1.0 
        0.6697021100         0.8635593126
p   1 1.0 
        0.2165130000         0.2105208234
d   1 1.0 
        3.1070000000        20.7284714039
d   1 1.0 
        0.8550000000         2.1672588463
f   1 1.0 
        1.9170000000        24.6547062912

[5D]
[9G]
[MO]
 Sym=     1a
 Ene= -4.26082510122544E+03
 Spin= Alpha
 Occup= 2.000000
  1      -0.084983897354
  2      -0.065169399662
  3      -0.111711576514
  4      -0.177549950062
  5      -0.264431041547
  6      -0.303181404936
  7      -0.192924981842
  8      -0.032221238767
  9      -0.000869246024
 10       0.000612586792
 11      -0.000447760742
 12       0.000332700649
 13      -0.000237627479
 14       0.000161387726
 15      -0.000108845777
 16       0.000074156649
 17      -0.000050396661
 18       0.000030784826
 19      -0.000011178286
 20       0.000004534350
 21      -0.000001254097
 22      -0.000000000012
 23       0.000000000017
 24       0.000000000067
 25       0.000000000003
 26      -0.000000000004
 27      -0.000000000017
 28       0.000000000002
 29      -0.000000000003
 30      -0.000000000010
 31      -0.000000000001
 32       0.000000000001
 33       0.000000000004
 34       0.000000000002
 35      -0.000000000002
 36      -0.000000000009
 37      -0.000000000004
 38       0.000000000004
 39       0.000000000018
 40       0.000000000007
 41      -0.000000000007
 42      -0.000000000031
 43      -0.000000000014
 44       0.000000000014
 45       0.000000000058
 46       0.000000000027
 47      -0.000000000028
 48      -0.000000000114
 49      -0.000000000054
 50       0.000000000056
 51       0.000000000230
 52       0.000000000119
 53      -0.000000000146
 54      -0.000000000580
 55      -0.000000000323
 56       0.000000000445
 57       0.000000001737
 58       0.000000000039
 59      -0.000000000056
 60      -0.000000000216
 61      -0.000000000000
 62       0.000000000000
 63      -0.000000000000
 64      -0.000000000000
 65      -0.000000000000
 66       0.000000000000
 67       0.000000000000
 68      -0.000000000000
 69      -0.000000000000
 70       0.000000000000
 71      -0.000000000000
 72      -0.000000000000
 73       0.000000000000
 74      -0.000000000000
 75       0.000000000000
 76       0.000000000000
 77       0.000000000000
 78      -0.000000000000
 79       0.000000000000
 80      -0.000000000000
 81      -0.000000000000
 82      -0.000000000000
 83       0.000000000001
 84      -0.000000000000
 85       0.000000000000
 86       0.000000000000
 87       0.000000000000
 88      -0.000000000001
 89       0.000000000000
 90      -0.000000000000
 91      -0.000000000000
 92      -0.000000000000
 93       0.000000000001
 94       0.000000000000
 95       0.000000000000
 96      -0.000000000000
 97       0.000000000000
 98      -0.000000000001
 99      -0.000000000001
100       0.000000000000
101       0.000000000002
102       0.000000000002
103      -0.000000000009
104       0.000000000002
105      -0.000000000000
106      -0.000000000000
107      -0.000000000001
108       0.000000000003
109      -0.000000000000
110       0.000000000000
111       0.000000000003
112       0.000000000000
113      -0.000000000001
114      -0.000000000000
115       0.000000000000
116       0.000000000000
117       0.000000000000
118      -0.000000000006
119      -0.000000000001
120       0.000000000001
121       0.000000000000
122      -0.000000000000
123      -0.000000000001
124      -0.000000000001
125       0.000000000010
126       0.000000000001
127      -0.000000000003
128      -0.000000000000
129      -0.000000000000
130       0.000000000001
131       0.000000000001
132      -0.000000000016
133      -0.000000000002
134       0.000000000004
135       0.000000000001
136       0.000000000000
137      -0.000000000001
138      -0.000000000002
139       0.000000000020
140       0.000000000003
141      -0.000000000006
142      -0.000000000001
143      -0.000000000000
144       0.000000000003
145       0.000000000002
146       0.000000000020
147      -0.000000000003
148      -0.000000000001
149       0.000000000001
150       0.000000000000
151      -0.000000000003
152       0.000000000008
153       0.000000000108
154       0.000000000016
155      -0.000000000008
156       0.000000000003
157      -0.000000000000
158       0.000000000024
159       0.000000000025
160       0.000000024220
161      -0.000000108097
162       0.000000194659
163      -0.000000423426
164      -0.000000617282
165      -0.000001080703
166      -0.000000000002
167       0.000000000003
168       0.000000093018
169       0.000000000004
170      -0.000000000005
171      -0.000000125052
172       0.000000000001
173      -0.000000000003
174       0.000000678616
175      -0.000000083971
176       0.000000000004
177      -0.000000000006
178       0.000000000000
179       0.000000000000
180       0.000000230629
181      -0.000000000012
182       0.000000000018
183      -0.000000000000
184      -0.000000000000
185      -0.000000143582
186       0.000000000006
187      -0.000000000009
188       0.000000000000
189       0.000000000000
190       0.000000000000
191       0.000000000000
192       0.000000024207
193      -0.000000108042
194       0.000000194556
195      -0.000000423130
196      -0.000000616546
197      -0.000001079046
198      -0.000000000003
199       0.000000000004
200      -0.000000093008
201       0.000000000004
202      -0.000000000006
203       0.000000124995
204       0.000000000000
205      -0.000000000003
206      -0.000000678037
207      -0.000000083970
208      -0.000000000004
209       0.000000000007
210      -0.000000000000
211      -0.000000000000
212       0.000000230603
213       0.000000000013
214      -0.000000000020
215       0.000000000000
216       0.000000000000
217       0.000000143566
218       0.000000000006
219      -0.000000000011
220       0.000000000000
221      -0.000000000000
222       0.000000000000
223       0.000000000000
224       0.000000024212
225      -0.000000108062
226       0.000000194594
227      -0.000000423240
228      -0.000000616819
229      -0.000001079661
230      -0.000000000002
231      -0.000000093012
232       0.000000000013
233       0.000000000004
234       0.000000125017
235      -0.000000000020
236      -0.000000000000
237      -0.000000678251
238      -0.000000000007
239       0.000000041985
240       0.000000000000
241       0.000000000023
242       0.000000072720
243      -0.000000000004
244      -0.000000115306
245      -0.000000000000
246      -0.000000000066
247      -0.000000199717
248       0.000000000011
249       0.000000000021
250      -0.000000000001
251      -0.000000087919
252       0.000000000026
253      -0.000000000000
254       0.000000000005
255       0.000000113504
256       0.000000024215
257      -0.000000108076
258       0.000000194620
259      -0.000000423312
260      -0.000000617003
261      -0.000001080081
262      -0.000000000002
263       0.000000093013
264       0.000000000013
265       0.000000000004
266      -0.000000125028
267      -0.000000000019
268      -0.000000000000
269       0.000000678399
270      -0.000000000006
271       0.000000041985
272       0.000000000000
273      -0.000000000022
274       0.000000072720
275       0.000000000004
276      -0.000000115309
277      -0.000000000000
278       0.000000000064
279      -0.000000199720
280      -0.000000000011
281       0.000000000020
282      -0.000000000001
283       0.000000087922
284       0.000000000025
285       0.000000000000
286       0.000000000005
287      -0.000000113506
288       0.000000024215
289      -0.000000108075
290       0.000000194619
291      -0.000000423311
292      -0.000000616991
293      -0.000001080035
294      -0.000000093015
295       0.000000000003
296       0.000000000013
297       0.000000125035
298      -0.000000000005
299      -0.000000000020
300      -0.000000678380
301      -0.000000000001
302      -0.000000000007
303       0.000000041986
304       0.000000000023
305      -0.000000000000
306      -0.000000072721
307       0.000000000005
308      -0.000000115312
309      -0.000000000066
310       0.000000000000
311       0.000000199726
312      -0.000000000015
313       0.000000000021
314      -0.000000087922
315       0.000000000002
316      -0.000000000026
317       0.000000000000
318      -0.000000113507
319       0.000000000007
320       0.000000024212
321      -0.000000108063
322       0.000000194595
323      -0.000000423243
324      -0.000000616836
325      -0.000001079711
326       0.000000093010
327       0.000000000003
328       0.000000000013
329      -0.000000125012
330      -0.000000000005
331      -0.000000000020
332       0.000000678272
333      -0.000000000001
334      -0.000000000007
335       0.000000041985
336      -0.000000000023
337      -0.000000000000
338      -0.000000072719
339      -0.000000000005
340      -0.000000115304
341       0.000000000066
342       0.000000000000
343       0.000000199713
344       0.000000000015
345       0.000000000021
346       0.000000087919
347       0.000000000002
348      -0.000000000026
349      -0.000000000000
350       0.000000113503
351       0.000000000007
 Sym=     1a
 Ene= -8.04793640376038E+02
 Spin= Alpha
 Occup= 2.000000
  1      -0.035876804091
  2      -0.029713622431
  3      -0.049764437688
  4      -0.086682452674
  5      -0.138725475623
  6      -0.177776105088
  7      -0.072231696993
  8       0.369132821151
  9       0.610963390445
 10       0.169965485812
 11      -0.002094511392
 12       0.001803765347
 13      -0.000970271930
 14       0.000506289690
 15      -0.000286823769
 16       0.000185251039
 17      -0.000123415031
 18       0.000074281148
 19      -0.000026948164
 20       0.000010897726
 21      -0.000003008346
 22      -0.000000000096
 23       0.000000000112
 24       0.000000000449
 25      -0.000000000134
 26       0.000000000152
 27       0.000000000611
 28      -0.000000000228
 29       0.000000000259
 30       0.000000001045
 31      -0.000000000168
 32       0.000000000186
 33       0.000000000754
 34      -0.000000000026
 35       0.000000000029
 36       0.000000000117
 37      -0.000000000015
 38       0.000000000018
 39       0.000000000073
 40       0.000000000014
 41      -0.000000000014
 42      -0.000000000057
 43      -0.000000000030
 44       0.000000000031
 45       0.000000000126
 46       0.000000000067
 47      -0.000000000070
 48      -0.000000000286
 49      -0.000000000131
 50       0.000000000135
 51       0.000000000557
 52       0.000000000284
 53      -0.000000000347
 54      -0.000000001387
 55      -0.000000000771
 56       0.000000001066
 57       0.000000004176
 58       0.000000000093
 59      -0.000000000134
 60      -0.000000000520
 61       0.000000000000
 62      -0.000000000000
 63       0.000000000001
 64       0.000000000000
 65       0.000000000000
 66      -0.000000000001
 67      -0.000000000001
 68       0.000000000005
 69      -0.000000000002
 70      -0.000000000000
 71       0.000000000000
 72      -0.000000000000
 73       0.000000000001
 74       0.000000000000
 75       0.000000000000
 76      -0.000000000000
 77       0.000000000000
 78      -0.000000000000
 79      -0.000000000000
 80      -0.000000000000
 81       0.000000000000
 82      -0.000000000000
 83       0.000000000001
 84      -0.000000000000
 85       0.000000000000
 86      -0.000000000000
 87       0.000000000001
 88      -0.000000000002
 89       0.000000000001
 90      -0.000000000000
 91       0.000000000001
 92      -0.000000000001
 93       0.000000000003
 94       0.000000000000
 95      -0.000000000000
 96      -0.000000000002
 97       0.000000000000
 98      -0.000000000002
 99      -0.000000000001
100       0.000000000000
101       0.000000000009
102       0.000000000005
103      -0.000000000022
104       0.000000000004
105      -0.000000000000
106      -0.000000000001
107      -0.000000000001
108       0.000000000006
109      -0.000000000001
110       0.000000000000
111      -0.000000000080
112      -0.000000000008
113       0.000000000016
114       0.000000000001
115       0.000000000000
116      -0.000000000009
117      -0.000000000015
118      -0.000000000002
119      -0.000000000000
120       0.000000000001
121       0.000000000000
122       0.000000000000
123      -0.000000000000
124      -0.000000000000
125       0.000000000034
126       0.000000000003
127      -0.000000000008
128      -0.000000000001
129      -0.000000000000
130       0.000000000003
131       0.000000000005
132      -0.000000000032
133      -0.000000000003
134       0.000000000009
135       0.000000000001
136       0.000000000000
137      -0.000000000003
138      -0.000000000004
139       0.000000000032
140       0.000000000006
141      -0.000000000011
142      -0.000000000002
143      -0.000000000000
144       0.000000000005
145       0.000000000002
146       0.000000000070
147      -0.000000000006
148      -0.000000000006
149       0.000000000003
150       0.000000000000
151      -0.000000000005
152       0.000000000023
153       0.000000000259
154       0.000000000038
155      -0.000000000019
156       0.000000000006
157      -0.000000000000
158       0.000000000057
159       0.000000000060
160       0.000000052329
161      -0.000000247932
162       0.000000455185
163      -0.000001013945
164      -0.000001481571
165      -0.000002562431
166      -0.000000000006
167       0.000000000008
168       0.000000223377
169       0.000000000010
170      -0.000000000012
171      -0.000000322739
172       0.000000000002
173      -0.000000000008
174       0.000001615540
175      -0.000000200824
176       0.000000000010
177      -0.000000000015
178       0.000000000000
179       0.000000000000
180       0.000000566647
181      -0.000000000029
182       0.000000000044
183      -0.000000000000
184      -0.000000000000
185      -0.000000346110
186       0.000000000014
187      -0.000000000023
188       0.000000000000
189       0.000000000000
190       0.000000000000
191       0.000000000000
192       0.000000052302
193      -0.000000247806
194       0.000000454945
195      -0.000001013245
196      -0.000001479812
197      -0.000002558436
198      -0.000000000006
199       0.000000000009
200      -0.000000223356
201       0.000000000011
202      -0.000000000014
203       0.000000322611
204       0.000000000001
205      -0.000000000009
206      -0.000001614142
207      -0.000000200823
208      -0.000000000010
209       0.000000000017
210      -0.000000000000
211      -0.000000000000
212       0.000000566594
213       0.000000000030
214      -0.000000000049
215       0.000000000000
216       0.000000000000
217       0.000000346073
218       0.000000000015
219      -0.000000000026
220       0.000000000000
221      -0.000000000000
222       0.000000000000
223       0.000000000000
224       0.000000052312
225      -0.000000247852
226       0.000000455033
227      -0.000001013504
228      -0.000001480462
229      -0.000002559915
230      -0.000000000006
231      -0.000000223364
232       0.000000000031
233       0.000000000010
234       0.000000322660
235      -0.000000000049
236       0.000000000000
237      -0.000001614659
238      -0.000000000017
239       0.000000100411
240       0.000000000000
241       0.000000000055
242       0.000000173919
243      -0.000000000009
244      -0.000000283306
245      -0.000000000000
246      -0.000000000158
247      -0.000000490704
248       0.000000000027
249       0.000000000050
250      -0.000000000003
251      -0.000000211934
252       0.000000000063
253      -0.000000000000
254       0.000000000013
255       0.000000273605
256       0.000000052318
257      -0.000000247883
258       0.000000455091
259      -0.000001013673
260      -0.000001480898
261      -0.000002560920
262      -0.000000000006
263       0.000000223367
264       0.000000000030
265       0.000000000010
266      -0.000000322684
267      -0.000000000046
268       0.000000000000
269       0.000001615015
270      -0.000000000016
271       0.000000100412
272       0.000000000000
273      -0.000000000053
274       0.000000173917
275       0.000000000009
276      -0.000000283313
277      -0.000000000000
278       0.000000000153
279      -0.000000490709
280      -0.000000000027
281       0.000000000048
282      -0.000000000003
283       0.000000211939
284       0.000000000061
285       0.000000000000
286       0.000000000013
287      -0.000000273612
288       0.000000052318
289      -0.000000247882
290       0.000000455090
291      -0.000001013671
292      -0.000001480868
293      -0.000002560811
294      -0.000000223372
295       0.000000000007
296       0.000000000031
297       0.000000322702
298      -0.000000000011
299      -0.000000000048
300      -0.000001614969
301      -0.000000000002
302      -0.000000000018
303       0.000000100413
304       0.000000000055
305      -0.000000000000
306      -0.000000173920
307       0.000000000012
308      -0.000000283319
309      -0.000000000158
310       0.000000000001
311       0.000000490722
312      -0.000000000035
313       0.000000000050
314      -0.000000211940
315       0.000000000004
316      -0.000000000063
317       0.000000000000
318      -0.000000273613
319       0.000000000017
320       0.000000052312
321      -0.000000247854
322       0.000000455036
323      -0.000001013511
324      -0.000001480502
325      -0.000002560037
326       0.000000223360
327       0.000000000007
328       0.000000000031
329      -0.000000322647
330      -0.000000000011
331      -0.000000000048
332       0.000001614710
333      -0.000000000002
334      -0.000000000018
335       0.000000100411
336      -0.000000000055
337      -0.000000000000
338      -0.000000173916
339      -0.000000000012
340      -0.000000283302
341       0.000000000159
342       0.000000000001
343       0.000000490693
344       0.000000000035
345       0.000000000050
346       0.000000211933
347       0.000000000004
348      -0.000000000063
349      -0.000000000000
350       0.000000273604
351       0.000000000017
 Sym=     1a
 Ene= -6.75448333569805E+02
 Spin= Alpha
 Occup= 2.000000
  1       0.000000000020
  2       0.000000000017
  3       0.000000000027
  4       0.000000000050
  5       0.000000000070
  6       0.000000000115
  7       0.000000000009
  8      -0.000000000138
  9      -0.000000000444
 10       0.000000000066
 11      -0.000000000340
 12       0.000000000672
 13      -0.000000001005
 14       0.000000001573
 15      -0.000000002485
 16       0.000000003659
 17      -0.000000004791
 18       0.000000004674
 19      -0.000000000864
 20      -0.000000000830
 21       0.000000000246
 22       0.004168087372
 23       0.178053476301
 24      -0.003591891706
 25       0.007095297052
 26       0.303098805962
 27      -0.006114444435
 28       0.010692202553
 29       0.456752381605
 30      -0.009214114351
 31       0.005624324022
 32       0.240261384819
 33      -0.004846818448
 34       0.000188507116
 35       0.008052697648
 36      -0.000162447923
 37       0.000102740033
 38       0.004388876342
 39      -0.000088537266
 40      -0.000071535150
 41      -0.003055857731
 42       0.000061646132
 43       0.000044720041
 44       0.001910362704
 45      -0.000038537929
 46      -0.000028224960
 47      -0.001205721359
 48       0.000024323111
 49       0.000018908784
 50       0.000807750392
 51      -0.000016294788
 52      -0.000012707575
 53      -0.000542845473
 54       0.000010950879
 55       0.000006390474
 56       0.000272990391
 57      -0.000005507351
 58      -0.000000713348
 59      -0.000030473055
 60       0.000000614840
 61      -0.000000000032
 62       0.000000000018
 63       0.000000000645
 64      -0.000000000066
 65      -0.000000000124
 66      -0.000000000055
 67      -0.000000000003
 68      -0.000000000106
 69      -0.000000000080
 70       0.000000000006
 71       0.000000000046
 72       0.000000000017
 73       0.000000000608
 74       0.000000000066
 75      -0.000000000094