[Molden Format]
[Title]
 Molden file created by orca_2mkl for BaseName=/data01/Nikolayandreadi/heavy/cm/Cm

[Atoms] AU
Cm   1  96          0.0415890928         1.5388172189        -3.6027401976 
[GTO]
  1 0
s   9 1.0 
 64183659.7122879997     18341.7117038968
 29174390.7783129998     -6758.1714140571
 13261086.7174149994     10363.5572157870
  6027766.6897339998       244.9966118343
  2739893.9498790000      4735.4899330975
  1245406.3408540001      2073.6914683036
   566093.7912970000      2911.1694935105
   257315.3596810000      2119.4045241260
   116961.5271280000      2167.8378182398
s   1 1.0 
    53164.3305130000      2495.3148673636
s   1 1.0 
    24165.6047780000      1381.3646678584
s   1 1.0 
    10984.3658080000       764.7004274204
s   1 1.0 
     4992.8935490000       423.3253950261
s   1 1.0 
     2269.4970680000       234.3458741054
s   1 1.0 
     1031.5895760000       129.7299650246
s   1 1.0 
      468.9043530000        71.8163436899
s   1 1.0 
      213.1383420000        39.7563293323
s   1 1.0 
       96.8810650000        22.0084405283
s   1 1.0 
       44.0368480000        12.1835054485
s   1 1.0 
       20.0167490000         6.7445852707
s   1 1.0 
        9.0985220000         3.7336897659
s   1 1.0 
        4.1356920000         2.0669084135
s   1 1.0 
        1.8798600000         1.1442060044
s   1 1.0 
        0.8544820000         0.6334134502
s   1 1.0 
        0.3884010000         0.3506471770
s   1 1.0 
        0.1765460000         0.1941125004
s   1 1.0 
        0.0802480000         0.1074572582
s   1 1.0 
        0.0364760000         0.0594861001
s   1 1.0 
        0.0165800000         0.0329305123
p   8 1.0 
   919065.4160050000    155084.3037269538
   382943.9233360000     13033.8591220902
   159559.9680560000     44494.9241943929
    66483.3200240000     21741.9357752702
    27701.3833430000     20810.8542073269
    11542.2430600000     16433.3243630285
     4809.2679420000     15112.5581166837
     2003.8616420000     13426.4666313791
p   1 1.0 
      834.9423510000      6397.5059864314
p   1 1.0 
      347.8926460000      2141.6408813544
p   1 1.0 
      144.9552690000       716.9396436587
p   1 1.0 
       60.3980290000       240.0040364015
p   1 1.0 
       25.1658450000        80.3441914649
p   1 1.0 
       10.4857690000        26.8961702682
p   1 1.0 
        4.3690700000         9.0038104076
p   1 1.0 
        1.8204460000         3.0141324951
p   1 1.0 
        0.7585190000         1.0090162666
p   1 1.0 
        0.3160500000         0.3377806999
p   1 1.0 
        0.1316870000         0.1130755524
p   1 1.0 
        0.0548700000         0.0378537394
d   7 1.0 
    45453.5554980000     69158.5304221611
    18181.4221990000     33549.0608196543
     7272.5688800000     36764.8300380107
     2909.0275520000     33296.4812113045
     1163.6110210000     35048.2136713992
      465.4444080000     31458.4333595288
      186.1777630000     21284.8094929165
d   1 1.0 
       74.4711050000      5382.0624155238
d   1 1.0 
       29.7884420000      1082.8136323072
d   1 1.0 
       11.9153770000       217.8505758998
d   1 1.0 
        4.7661510000        43.8292187085
d   1 1.0 
        1.9064600000         8.8179687304
d   1 1.0 
        0.7625840000         1.7740813862
d   1 1.0 
        0.3050340000         0.3569270978
d   1 1.0 
        0.1220130000         0.0718093124
d   1 1.0 
        0.0488050000         0.0144471652
f   6 1.0 
     5137.9626210000     79478.5378028876
     1976.1394700000     69378.2233604487
      760.0536420000     74836.3018841376
      292.3283240000     73855.3374665989
      112.4339710000     54388.1326524370
       43.2438350000     22700.0167896505
f   1 1.0 
       16.6322440000      3185.2203837389
f   1 1.0 
        6.3970170000       371.0645496036
f   1 1.0 
        2.4603910000        43.2274255115
f   1 1.0 
        0.9463040000         5.0358072630
f   1 1.0 
        0.3639630000         0.5866497101
f   1 1.0 
        0.1399860000         0.0683424334

[5D]
[7F]
[9G]
[MO]
 Sym=     1a
 Ene= -4.72589959217262E+03
 Spin= Alpha
 Occup= 1.000000
  1       0.094758875495
  2       0.069941076322
  3       0.117991712882
  4       0.182508784709
  5       0.265284468504
  6       0.295462252383
  7       0.183764707863
  8       0.029690141334
  9       0.000972756618
 10      -0.000705191746
 11       0.000509694084
 12      -0.000370830341
 13       0.000261309139
 14      -0.000175717524
 15       0.000116212960
 16      -0.000076372540
 17       0.000049239858
 18      -0.000030454831
 19       0.000017208506
 20      -0.000007881052
 21       0.000002123081
 22      -0.000000000018
 23       0.000000000089
 24       0.000000000236
 25       0.000000000181
 26       0.000000000054
 27       0.000000000113
 28       0.000000000068
 29       0.000000000005
 30      -0.000000000000
 31       0.000000000029
 32       0.000000000001
 33      -0.000000000001
 34      -0.000000000012
 35      -0.000000000013
 36      -0.000000000033
 37      -0.000000000020
 38      -0.000000000008
 39      -0.000000000018
 40      -0.000000000002
 41       0.000000000000
 42       0.000000000001
 43       0.000000000010
 44       0.000000000003
 45       0.000000000006
 46       0.000000000001
 47       0.000000000001
 48       0.000000000002
 49      -0.000000000002
 50      -0.000000000001
 51      -0.000000000003
 52      -0.000000000002
 53      -0.000000000000
 54      -0.000000000000
 55      -0.000000000000
 56       0.000000000000
 57       0.000000000001
 58      -0.000000000000
 59       0.000000000000
 60       0.000000000000
 61      -0.000000023899
 62      -0.000000006817
 63       0.000000001259
 64       0.000000043640
 65      -0.000000013413
 66       0.000000017742
 67       0.000000003227
 68      -0.000000000589
 69      -0.000000030746
 70       0.000000009500
 71      -0.000000010723
 72      -0.000000001650
 73       0.000000000298
 74       0.000000018304
 75      -0.000000005665
 76       0.000000006294
 77       0.000000000927
 78      -0.000000000167
 79      -0.000000010703
 80       0.000000003314
 81      -0.000000003518
 82      -0.000000000576
 83       0.000000000104
 84       0.000000006027
 85      -0.000000001864
 86       0.000000001835
 87       0.000000000353
 88      -0.000000000064
 89      -0.000000003186
 90       0.000000000984
 91      -0.000000001236
 92      -0.000000000195
 93       0.000000000035
 94       0.000000002110
 95      -0.000000000653
 96       0.000000000600
 97       0.000000000097
 98      -0.000000000018
 99      -0.000000001028
100       0.000000000318
101      -0.000000000293
102      -0.000000000053
103       0.000000000010
104       0.000000000508
105      -0.000000000157
106       0.000000000098
107       0.000000000017
108      -0.000000000003
109      -0.000000000169
110       0.000000000052
111      -0.000000000011
112      -0.000000000019
113      -0.000000000002
114       0.000000000011
115      -0.000000000007
116      -0.000000000014
117      -0.000000000003
118       0.000000000010
119       0.000000000028
120       0.000000000004
121      -0.000000000005
122       0.000000000006
123       0.000000000022
124      -0.000000000003
125      -0.000000000007
126      -0.000000000023
127      -0.000000000003
128       0.000000000003
129      -0.000000000004
130      -0.000000000018
131       0.000000000003
132       0.000000000003
133       0.000000000008
134       0.000000000001
135      -0.000000000002
136       0.000000000002
137       0.000000000007
138      -0.000000000001
139      -0.000000000001
140      -0.000000000002
141      -0.000000000001
142       0.000000000001
143      -0.000000000001
144      -0.000000000001
145      -0.000000000000
146       0.000000000001
147       0.000000000003
148       0.000000000000
149      -0.000000000000
150       0.000000000001
151       0.000000000002
152      -0.000000000001
153      -0.000000000000
154      -0.000000000000
155      -0.000000000000
156      -0.000000000000
157      -0.000000000000
158      -0.000000000000
159       0.000000000000
 Sym=     1a
 Ene= -9.06480576173984E+02
 Spin= Alpha
 Occup= 1.000000
  1      -0.040912022915
  2      -0.032678417736
  3      -0.053659040834
  4      -0.091148419079
  5      -0.141196061975
  6      -0.172263353910
  7      -0.051011418116
  8       0.392363160352
  9       0.594526439489
 10       0.150866461920
 11      -0.001461717684
 12       0.000902859250
 13      -0.000352251378
 14       0.000100074839
 15      -0.000015452903
 16       0.000000734502
 17       0.000001770986
 18      -0.000002124109
 19       0.000001387933
 20      -0.000000678943
 21       0.000000188028
 22       0.000000002087
 23      -0.000000000863
 24      -0.000000002508
 25       0.000000003315
 26      -0.000000000854
 27      -0.000000002633
 28       0.000000007346
 29      -0.000000001717
 30      -0.000000005522
 31      -0.000000000077
 32      -0.000000004238
 33      -0.000000010749
 34      -0.000000000587
 35       0.000000000176
 36       0.000000000579
 37       0.000000000773
 38      -0.000000000357
 39      -0.000000001023
 40      -0.000000000204
 41       0.000000000111
 42       0.000000000316
 43      -0.000000000066
 44      -0.000000000071
 45      -0.000000000174
 46      -0.000000000066
 47       0.000000000061
 48       0.000000000164
 49       0.000000000090
 50       0.000000000008
 51       0.000000000008
 52       0.000000000012
 53       0.000000000021
 54       0.000000000051
 55       0.000000000014
 56      -0.000000000014
 57      -0.000000000038
 58      -0.000000000002
 59       0.000000000000
 60      -0.000000000000
 61      -0.000001965690
 62      -0.000000635083
 63       0.000000116602
 64       0.000003639243
 65      -0.000001116663
 66      -0.000000710170
 67      -0.000000200632
 68       0.000000038430
 69       0.000001315173
 70      -0.000000404029
 71       0.000000199092
 72       0.000000078562
 73      -0.000000015614
 74      -0.000000397826
 75       0.000000121460
 76      -0.000000101137
 77      -0.000000035846
 78       0.000000007215
 79       0.000000199122
 80      -0.000000060887
 81       0.000000051492
 82       0.000000016855
 83      -0.000000003397
 84      -0.000000099916
 85       0.000000030591
 86      -0.000000027536
 87      -0.000000011362
 88       0.000000002257
 89       0.000000055536
 90      -0.000000016942
 91       0.000000020774
 92       0.000000006876
 93      -0.000000001360
 94      -0.000000040012
 95       0.000000012253
 96      -0.000000009449
 97      -0.000000003165
 98       0.000000000634
 99       0.000000018359
100      -0.000000005620
101       0.000000004723
102       0.000000001734
103      -0.000000000346
104      -0.000000009320
105       0.000000002849
106      -0.000000001570
107      -0.000000000554
108       0.000000000110
109       0.000000003070
110      -0.000000000939
111      -0.000000000879
112      -0.000000000559
113       0.000000000130
114       0.000000001376
115      -0.000000000578
116      -0.000000000473
117      -0.000000000696
118       0.000000000525
119      -0.000000000073
120       0.000000000042
121      -0.000000000741
122       0.000000000272
123      -0.000000000072
124       0.000000000463
125      -0.000000000261
126       0.000000000228
127      -0.000000000026
128       0.000000000396
129      -0.000000000121
130       0.000000000190
131      -0.000000000288
132       0.000000000166
133      -0.000000000032
134       0.000000000024
135      -0.000000000224
136       0.000000000082
137      -0.000000000033
138       0.000000000142
139      -0.000000000084
140      -0.000000000034
141      -0.000000000011
142       0.000000000106
143      -0.000000000044
144      -0.000000000024
145      -0.000000000056
146       0.000000000032
147      -0.000000000025
148       0.000000000002
149      -0.000000000049
150       0.000000000015
151      -0.000000000021
152       0.000000000036
153      -0.000000000015
154      -0.000000000006
155      -0.000000000001
156       0.000000000020
157      -0.000000000008
158      -0.000000000004
159      -0.000000000011
 Sym=     1a
 Ene= -7.49878628490255E+02
 Spin= Alpha
 Occup= 1.000000
  1      -0.000000000461
  2      -0.000000000371
  3      -0.000000000596
  4      -0.000000001055
  5      -0.000000001537
  6      -0.000000002110
  7       0.000000000097
  8       0.000000003436
  9       0.000000003283
 10       0.000000009586
 11      -0.000000000099
 12      -0.000000002460
 13       0.000000000181
 14       0.000000000857
 15      -0.000000000059
 16      -0.000000000237
 17      -0.000000000016
 18      -0.000000000053
 19       0.000000000106
 20      -0.000000000010
 21       0.000000000004
 22      -0.182680030518
 23       0.027418492471
 24       0.017340157586
 25      -0.302309153903
 26       0.045373658423
 27       0.028695456162
 28      -0.447496193719
 29       0.067164817348
 30       0.042476789128
 31      -0.230752787578
 32       0.034633742952
 33       0.021903330301
 34      -0.006961616183
 35       0.001044872135
 36       0.000660748111
 37      -0.004294146251
 38       0.000644510603
 39       0.000407567738
 40       0.002948718853
 41      -0.000442573755
 42      -0.000279905684
 43      -0.001811218252
 44       0.000271845659
 45       0.000171943127
 46       0.001087160296
 47      -0.000163172217
 48      -0.000103191721
 49      -0.000643437402
 50       0.000096573775
 51       0.000061072349
 52       0.000359849729
 53      -0.000054009850
 54      -0.000034160779
 55      -0.000173950041
 56       0.000026108240
 57       0.000016510277
 58       0.000054464771
 59      -0.000008174618
 60      -0.000005170221
 61       0.000000002723
 62       0.000000001127
 63      -0.000000000098
 64      -0.000000004440
 65       0.000000000714
 66      -0.000000003168
 67       0.000000003240
 68      -0.000000000666
 69       0.000000005021
 70       0.000000000700
 71       0.000000002369
 72       0.000000000695
 73       0.000000000101
 74      -0.000000002997
 75       0.000000000787
 76      -0.000000001408
 77       0.000000000777
 78      -0.000000000239
 79       0.000000001974
 80       0.000000000040
 81       0.000000000540
 82      -0.000000000944
 83       0.000000000180
 84      -0.000000000918
 85      -0.000000000299
 86      -0.000000000112
 87      -0.000000000303
 88       0.000000000042
 89       0.000000000162
 90      -0.000000000139
 91       0.000000000262
 92      -0.000000000202
 93       0.000000000054
 94      -0.000000000373
 95      -0.000000000031
 96      -0.000000000106
 97       0.000000000041
 98      -0.000000000015
 99       0.000000000151
100      -0.000000000004
101       0.000000000010
102      -0.000000000008
103       0.000000000002
104      -0.000000000019
105      -0.000000000002
106      -0.000000000021
107       0.000000000014
108      -0.000000000004
109       0.000000000029
110       0.000000000001
111      -0.000000346893
112       0.000001486636
113      -0.000000226178
114       0.000000432808
115      -0.000000135674
116       0.000001870538
117      -0.000000896465
118       0.000000352035
119      -0.000001079254
120       0.000000164138
121      -0.000000436021
122       0.000000133127
123      -0.000001388107
124       0.000000664033
125      -0.000000258982
126       0.000000690822
127      -0.000000105087
128       0.000000319881
129      -0.000000096723
130       0.000000897891
131      -0.000000429140
132       0.000000100330
133      -0.000000312419
134       0.000000047506
135      -0.000000124307
136       0.000000038002
137      -0.000000401361
138       0.000000192022
139      -0.000000030598
140       0.000000127546
141      -0.000000019374
142       0.000000038205
143      -0.000000011990
144       0.000000161070
145      -0.000000077182
146       0.000000031923
147      -0.000000082570
148       0.000000012571
149      -0.000000039375
150       0.000000011858
151      -0.000000107359
152       0.000000051305
153      -0.000000003528
154       0.000000018622
155      -0.000000002826
156       0.000000004439
157      -0.000000001429
158       0.000000023239
159      -0.000000011148
 Sym=     1a
 Ene= -7.49874617896430E+02
 Spin= Alpha
 Occup= 1.000000
  1      -0.000000000901
  2      -0.000000000712
  3      -0.000000001216
  4      -0.000000001921
  5      -0.000000003365
  6      -0.000000003387
  7      -0.000000002721
  8       0.000000017106
  9       0.000000010024
 10      -0.000000015198
 11       0.000000008994
 12       0.000000002759
 13       0.000000000715
 14      -0.000000002077
 15       0.000000000674
 16      -0.000000000167
 17       0.000000000262
 18      -0.000000000051
 19       0.000000000087
 20      -0.000000000009
 21       0.000000000002
 22       0.018777854799
 23       0.008496675912
 24       0.184391071410
 25       0.031074678207
 26       0.014060784822
 27       0.305140907405
 28       0.045998511713
 29       0.020813604469
 30       0.451687455749
 31       0.023718563488
 32       0.010732303223
 33       0.232907468911
 34       0.000715357323
 35       0.000323655489
 36       0.007023992165
 37       0.000441529906
 38       0.000199763653
 39       0.004335292728
 40      -0.000303114406
 41      -0.000137160481
 42      -0.002976564711
 43       0.000186153941
 44       0.000084243683
 45       0.001828157122
 46      -0.000111764274
 47      -0.000050570024
 48      -0.001097455729
 49       0.000066154793
 50       0.000029932003
 51       0.000649581159
 52      -0.000036987450
 53      -0.000016738275
 54      -0.000363236108
 55       0.000017885015
 56       0.000008091963
 57       0.000175611863
 58      -0.000005598571
 59      -0.000002533476
 60      -0.000054979252
 61      -0.000000009702
 62      -0.000000000705
 63      -0.000000003549
 64       0.000000004140
 65      -0.000000001437
 66      -0.000000005659
 67      -0.000000001426
 68      -0.000000002032
 69      -0.000000000733
 70      -0.000000000086
 71      -0.000000003545
 72      -0.000000001987
 73      -0.000000001511
 74      -0.000000001126
 75      -0.000000000025
 76      -0.000000000668
 77       0.000000000184
 78      -0.000000000330
 79       0.000000000114
 80      -0.000000000018
 81       0.000000001938
 82       0.000000000665
 83       0.000000000896
 84       0.000000000374
 85       0.000000000027
 86       0.000000000649
 87       0.000000000114
 88       0.000000000216
 89      -0.000000000044
 90       0.000000000032
 91       0.000000000260
 92      -0.000000000002
 93       0.000000000139
 94       0.000000000020
 95      -0.000000000001
 96       0.000000000004
 97       0.000000000031
 98      -0.000000000022
 99      -0.000000000019
100       0.000000000007
101       0.000000000038
102       0.000000000025
103       0.000000000023
104       0.000000000019
105      -0.000000000000
106      -0.000000000008
107       0.000000000007
108      -0.000000000007
109      -0.000000000001
110       0.000000000001
111      -0.000001314776
112      -0.000000498151
113       0.000000094349
114       0.000001791885
115      -0.000000559069
116      -0.000000248972
117      -0.000000046094
118       0.000000687404
119       0.000000158462
120      -0.000000038298
121      -0.000000954865
122       0.000000294162
123       0.000000075005
124       0.000000048717
125      -0.000000350859
126      -0.000000032132
127       0.000000014548
128       0.000000495339
129      -0.000000150772
130      -0.000000012341
131      -0.000000036485
132       0.000000202299
133       0.000000048448
134      -0.000000011344
135      -0.000000280496
136       0.000000086499
137       0.000000023117
138       0.000000013832
139      -0.000000109234
140      -0.000000040638
141       0.000000007485
142       0.000000149002
143      -0.000000046520
144      -0.000000020202
145      -0.000000003975
146       0.000000039415
147       0.000000001475
148      -0.000000001436
149      -0.000000055742
150       0.000000016879
151       0.000000000357
152       0.000000004552
153      -0.000000018187
154      -0.000000007615
155       0.000000001315
156       0.000000024590
157      -0.000000007714
158      -0.000000003849
159      -0.000000000436
 Sym=     1a
 Ene= -7.49874402256454E+02
 Spin= Alpha
 Occup= 1.000000
  1       0.000000000237
  2       0.000000000186
  3       0.000000000325
  4       0.000000000492
  5       0.000000000919
  6       0.000000000821
  7       0.000000000983
  8      -0.000000005395
  9      -0.000000003003
 10       0.000000006984
 11      -0.000000003174
 12      -0.000000001414
 13      -0.000000000201
 14       0.000000000859
 15      -0.000000000233
 16       0.000000000010
 17      -0.000000000090
 18       0.000000000005
 19      -0.000000000011
 20       0.000000000000
 21       0.000000000000
 22      -0.026454882685
 23      -0.183305528931
 24       0.011140743360
 25      -0.043779057650
 26      -0.303344511231
 27       0.018436341502
 28      -0.064804323367
 29      -0.449028271319
 30       0.027290550725
 31      -0.033415549850
 32      -0.231535859720
 33       0.014072034460
 34      -0.001007722151
 35      -0.006982525659
 36       0.000424375622
 37      -0.000622003012
 38      -0.004309873445
 39       0.000261940356
 40       0.000427054889
 41       0.002959051887
 42      -0.000179842197
 43      -0.000262287311
 44      -0.001817372971
 45       0.000110454584
 46       0.000157454645
 47       0.001091002570
 48      -0.000066307727
 49      -0.000093197662
 50      -0.000645767399
 51       0.000039247706
 52       0.000052114094
 53       0.000361095798
 54      -0.000021946335
 55      -0.000025195659
 56      -0.000174581120
 57       0.000010610485
 58       0.000007887941
 59       0.000054655201
 60      -0.000003321778
 61       0.000000001077
 62       0.000000001272
 63       0.000000003491
 64      -0.000000002897
 65      -0.000000001485
 66      -0.000000003568
 67       0.000000000726
 68       0.000000007376
 69      -0.000000002797
 70       0.000000002369
 71      -0.000000000876
 72       0.000000000382
 73       0.000000003112
 74      -0.000000000748
 75       0.000000001037
 76      -0.000000000409
 77       0.000000000072
 78       0.000000000787
 79      -0.000000000397
 80       0.000000000208
 81       0.000000000737
 82      -0.000000000200
 83      -0.000000001923
 84       0.000000000639
 85      -0.000000000697
 86       0.000000000180
 87      -0.000000000088
 88      -0.000000000565
 89       0.000000000243
 90      -0.000000000053
 91       0.000000000103
 92      -0.000000000027
 93      -0.000000000254
 94       0.000000000101
 95      -0.000000000057
 96      -0.000000000003
 97      -0.000000000003
 98      -0.000000000001
 99       0.000000000005
100      -0.000000000004
101       0.000000000013
102      -0.000000000002
103      -0.000000000038
104       0.000000000008
105      -0.000000000025
106      -0.000000000003
107       0.000000000001
108       0.000000000007
109      -0.000000000003
110      -0.000000000002
111      -0.000000101103
112       0.000000034946
113       0.000000490472
114       0.000000190133
115       0.000000254592
116       0.000001031231
117       0.000002169206
118       0.000000053358
119      -0.000000022171
120      -0.000000246749
121      -0.000000093388
122      -0.000000097917
123      -0.000000546673
124      -0.000001139786
125      -0.000000027763
126       0.000000013149
127       0.000000121534
128       0.000000044469
129       0.000000033009
130       0.000000282530
131       0.000000584222
132       0.000000015616
133      -0.000000006485
134      -0.000000072855
135      -0.000000027580
136      -0.000000029321
137      -0.000000160571
138      -0.000000334992
139      -0.000000008185
140       0.000000002986
141       0.000000040673
142       0.000000015858
143       0.000000020778
144       0.000000085516
145       0.000000179877
146       0.000000003188
147      -0.000000001560
148      -0.000000013550
149      -0.000000004777
150      -0.000000002902
151      -0.000000031799
152      -0.000000065534
153      -0.000000001348
154       0.000000000472
155       0.000000006874
156       0.000000002676
157       0.000000003715
158       0.000000014125
159       0.000000029802
 Sym=     1a
 Ene= -2.35383528039169E+02
 Spin= Alpha
 Occup= 1.000000
  1      -0.020135468033
  2      -0.016330944606
  3      -0.026570292003
  4      -0.046338051979
  5      -0.071609415068
  6      -0.091368461919
  7      -0.011974747100
  8       0.320539902978
  9       0.679456330355
 10      -0.273610212103
 11      -0.963839442447
 12      -0.109661051915
 13      -0.022763866171
 14       0.017269907443
 15      -0.012025811838
 16       0.008175386120
 17      -0.005359722614
 18       0.003341374535
 19      -0.001896338360
 20       0.000870372058
 21      -0.000234726746
 22       0.000000011641
 23       0.000000024498
 24       0.000000059836
 25       0.000000021470
 26       0.000000046258
 27       0.000000113111
 28       0.000000029054
 29       0.000000055352
 30       0.000000134633
 31      -0.000000002978
 32       0.000000005481
 33       0.000000014699
 34      -0.000000090948
 35      -0.000000178029
 36      -0.000000434499
 37      -0.000000061211
 38      -0.000000162823
 39      -0.000000400253
 40       0.000000010029
 41       0.000000026932
 42       0.000000066389
 43      -0.000000005970
 44      -0.000000010680
 45      -0.000000026148
 46       0.000000003752
 47       0.000000009280
 48       0.000000022854
 49      -0.000000001375
 50      -0.000000004807
 51      -0.000000011911
 52       0.000000001610
 53       0.000000003059
 54       0.000000007473
 55      -0.000000000608
 56      -0.000000001504
 57      -0.000000003715
 58       0.000000000225
 59       0.000000000420
 60       0.000000001017
 61       0.000018834857
 62       0.000005359072
 63      -0.000001008119
 64      -0.000034647161
 65       0.000010646144
 66       0.000040896739
 67       0.000011756436
 68      -0.000002190610
 69      -0.000075033456
 70       0.000023057443
 71       0.000022277433
 72       0.000006675200
 73      -0.000001251111
 74      -0.000041245132
 75       0.000012667196
 76      -0.000002126356
 77      -0.000000631343
 78       0.000000120690
 79       0.000003971888
 80      -0.000001219848
 81       0.000001216435
 82       0.000000278013
 83      -0.000000052113
 84      -0.000002179288
 85       0.000000671851
 86      -0.000000688880
 87      -0.000000200989
 88       0.000000037631
 89       0.000001272291
 90      -0.000000391030
 91       0.000000452404
 92       0.000000130957
 93      -0.000000024656
 94      -0.000000835889
 95       0.000000256870
 96      -0.000000213841
 97      -0.000000058390
 98       0.000000011035
 99       0.000000392828
100      -0.000000120814
101       0.000000107879
102       0.000000033498
103      -0.000000006357
104      -0.000000202160
105       0.000000062054
106      -0.000000036160
107      -0.000000010992
108       0.000000002077
109       0.000000067417
110      -0.000000020702
111      -0.000000037880
112      -0.000000010239
113      -0.000000040501
114       0.000000002955
115      -0.000000005877
116       0.000000003033
117      -0.000000001943
118      -0.000000007569
119      -0.000000006633
120      -0.000000002620
121       0.000000006677
122      -0.000000003542
123      -0.000000004607
124      -0.000000002696
125       0.000000005446
126       0.000000007034
127       0.000000001394
128      -0.000000005101
129       0.000000002956
130       0.000000005157
131       0.000000001608
132      -0.000000001848
133      -0.000000002277
134      -0.000000000708
135       0.000000001459
136      -0.000000000907
137      -0.000000001603
138      -0.000000000415
139       0.000000000920
140       0.000000000453
141       0.000000000379
142      -0.000000000823
143       0.000000000411
144       0.000000000232
145       0.000000000418
146      -0.000000000507
147      -0.000000000692
148      -0.000000000239
149       0.000000000335
150      -0.000000000243
151      -0.000000000470
152      -0.000000000064
153       0.000000000142
154       0.000000000093
155       0.000000000086
156      -0.000000000084
157       0.000000000055
158       0.000000000040
159       0.000000000036
 Sym=     1a
 Ene= -1.91589850343001E+02
 Spin= Alpha
 Occup= 1.000000
  1       0.000000000702
  2       0.000000000571
  3       0.000000000922
  4       0.000000001632
  5       0.000000002463
  6       0.000000003300
  7       0.000000000019
  8      -0.000000010685
  9      -0.000000023202
 10       0.000000012033
 11       0.000000022071
 12       0.000000014162
 13       0.000000002496
 14      -0.000000009023
 15       0.000000002073
 16       0.000000001478
 17       0.000000001382
 18      -0.000000000906
 19      -0.000000000015
 20      -0.000000000539
 21       0.000000000125
 22       0.103104032991
 23      -0.015506029921
 24      -0.008334775177
 25       0.183150873699
 26      -0.027544441032
 27      -0.014805632217
 28       0.273146229325
 29      -0.041079028930
 30      -0.022080746335
 31      -0.136708773617
 32       0.020559918059
 33       0.011051251979
 34      -0.732491596702
 35       0.110160941044
 36       0.059213325123
 37      -0.237008165566
 38       0.035644135101
 39       0.019159967530
 40       0.007071241366
 41      -0.001063461821
 42      -0.000571502466
 43      -0.004991958419
 44       0.000750759664
 45       0.000403241462
 46       0.002815799679
 47      -0.000423474267
 48      -0.000227627810
 49      -0.001561939427
 50       0.000234902436
 51       0.000126299560
 52       0.000858540778
 53      -0.000129119243
 54      -0.000069349385
 55      -0.000413165060
 56       0.000062136466
 57       0.000033412169
 58       0.000129135275
 59      -0.000019421106
 60      -0.000010433495
 61       0.000000001694
 62      -0.000000146299
 63       0.000000026465
 64      -0.000000001918
 65      -0.000000061251