[Molden Format]
[Title]
 Molden file created by orca_2mkl for BaseName=/data01/Nikolayandreadi/heavy/CC/UO2_OH_2

[Atoms] AU
U    1  92         -0.6003754414         0.3879664445         1.3740349898 
O    2   8          0.6716691392        -1.9606173201         3.2848259009 
O    3   8         -2.5246684457         2.9227127997         0.4724655486 
O    4   8         -3.1804960108        -2.2771369989        -0.0105805766 
O    5   8          2.1282057926         0.6906079745        -1.3183938935 
H    6   1         -4.5647393012        -1.9030562621        -1.1383955895 
H    7   1          3.3953899976         0.7390662218        -2.6071682196 
[GTO]
  1 0
s   9 1.0 
 58915269.2040619999     15878.5363952950
 26779667.8200279996     -5784.7557541551
 12172576.2818310000      9027.3946318877
  5532989.2190140001       325.6868040056
  2514995.0995519999      4208.1243710139
  1143179.5907050001      1939.1491289669
   519627.0866840000      2669.4311026285
   236194.1303110000      2005.5172738201
   107360.9683230000      2058.9530636601
s   1 1.0 
    48800.4401470000      2340.0648682401
s   1 1.0 
    22182.0182490000      1295.4208592531
s   1 1.0 
    10082.7355680000       717.1233692609
s   1 1.0 
     4583.0616220000       396.9875296292
s   1 1.0 
     2083.2098280000       219.7656713216
s   1 1.0 
      946.9135580000       121.6586080998
s   1 1.0 
      430.4152540000        67.3481752053
s   1 1.0 
      195.6432970000        37.2828258248
s   1 1.0 
       88.9287710000        20.6391501245
s   1 1.0 
       40.4221690000        11.4254891526
s   1 1.0 
       18.3737130000         6.3249600754
s   1 1.0 
        8.3516880000         3.5013924304
s   1 1.0 
        3.7962220000         1.9383124866
s   1 1.0 
        1.7255550000         1.0730172334
s   1 1.0 
        0.7843430000         0.5940043302
s   1 1.0 
        0.3565200000         0.3288311987
s   1 1.0 
        0.1620540000         0.1820350044
s   1 1.0 
        0.0736610000         0.1007716339
s   1 1.0 
        0.0334820000         0.0557851540
s   1 1.0 
        0.0152190000         0.0308815919
p   8 1.0 
   839813.6669700000    124700.6825327761
   349922.3612380000     10799.0830937165
   145800.9838490000     36359.2991195727
    60750.4099370000     18163.2607860982
    25312.6708070000     17573.6487977577
    10546.9461700000     14195.6918408552
     4394.5609040000     13322.9302572221
     1831.0670430000     12107.7084625556
p   1 1.0 
      762.9446010000      5715.5278197986
p   1 1.0 
      317.8935840000      1913.3406184205
p   1 1.0 
      132.4556600000       640.5134283167
p   1 1.0 
       55.1898580000       214.4194529751
p   1 1.0 
       22.9957740000        71.7794502225
p   1 1.0 
        9.5815730000        24.0290224861
p   1 1.0 
        3.9923220000         8.0439996005
p   1 1.0 
        1.6634670000         2.6928231053
p   1 1.0 
        0.6931110000         0.9014540144
p   1 1.0 
        0.2887960000         0.3017720791
p   1 1.0 
        0.1203320000         0.1010221266
p   1 1.0 
        0.0501380000         0.0338180721
d   7 1.0 
    41049.8202270000     53262.0337640016
    16419.9280910000     26338.4031025142
     6567.9712360000     29332.4246479962
     2627.1884950000     27101.6066256769
     1050.8753980000     28990.3214062957
      420.3501590000     26289.6282344813
      168.1400640000     17820.8132210096
d   1 1.0 
       67.2560250000      4502.9764563892
d   1 1.0 
       26.9024100000       905.9509006942
d   1 1.0 
       10.7609640000       182.2676717095
d   1 1.0 
        4.3043860000        36.6703201328
d   1 1.0 
        1.7217540000         7.3776748265
d   1 1.0 
        0.6887020000         1.4843111023
d   1 1.0 
        0.2754810000         0.2986279634
d   1 1.0 
        0.1101920000         0.0600803838
d   1 1.0 
        0.0440770000         0.0120876293
f   6 1.0 
     4391.9602590000     58042.2322349557
     1689.2154840000     50234.6786083959
      649.6982630000     55932.1636963999
      249.8839470000     54589.9728655915
       96.1092110000     39385.8448814677
       36.9650810000     15829.5183325708
f   1 1.0 
       14.2173390000      2237.9031973610
f   1 1.0 
        5.4682070000       260.7061095750
f   1 1.0 
        2.1031570000        30.3711607432
f   1 1.0 
        0.8089060000         3.5381049160
f   1 1.0 
        0.3111180000         0.4121749941
f   1 1.0 
        0.1196610000         0.0480168308

  2 0
s   6 1.0 
    27032.3826310000         1.4645050749
     4052.3871392000         1.8244031008
      922.3272271000         2.8547160967
      261.2407098900         4.3654874290
       85.3546413500         5.8940772662
       31.0350352400         6.2963020147
s   1 1.0 
       12.2608607300         4.6698272139
s   1 1.0 
        4.9987076000         2.3826123703
s   1 1.0 
        1.1703108200         0.8019291632
s   1 1.0 
        0.4647474100        -0.4011648063
s   1 1.0 
        0.1850453600         0.2010799377
p   4 1.0 
       63.2749548000         3.0898340730
       14.6270493800         3.3923831935
        4.4501223500         2.9482801524
        1.5275799600         1.7113350234
p   1 1.0 
        0.5293511800         0.6436057935
p   1 1.0 
        0.1747842100         0.1610897223
d   1 1.0 
        2.3140000000        12.3767310624
d   1 1.0 
        0.6450000000         1.3234257612
f   1 1.0 
        1.4280000000        12.7097950062

  3 0
s   6 1.0 
    27032.3826310000         1.4645050749
     4052.3871392000         1.8244031008
      922.3272271000         2.8547160967
      261.2407098900         4.3654874290
       85.3546413500         5.8940772662
       31.0350352400         6.2963020147
s   1 1.0 
       12.2608607300         4.6698272139
s   1 1.0 
        4.9987076000         2.3826123703
s   1 1.0 
        1.1703108200         0.8019291632
s   1 1.0 
        0.4647474100        -0.4011648063
s   1 1.0 
        0.1850453600         0.2010799377
p   4 1.0 
       63.2749548000         3.0898340730
       14.6270493800         3.3923831935
        4.4501223500         2.9482801524
        1.5275799600         1.7113350234
p   1 1.0 
        0.5293511800         0.6436057935
p   1 1.0 
        0.1747842100         0.1610897223
d   1 1.0 
        2.3140000000        12.3767310624
d   1 1.0 
        0.6450000000         1.3234257612
f   1 1.0 
        1.4280000000        12.7097950062

  4 0
s   6 1.0 
    27032.3826310000         1.4645050749
     4052.3871392000         1.8244031008
      922.3272271000         2.8547160967
      261.2407098900         4.3654874290
       85.3546413500         5.8940772662
       31.0350352400         6.2963020147
s   1 1.0 
       12.2608607300         4.6698272139
s   1 1.0 
        4.9987076000         2.3826123703
s   1 1.0 
        1.1703108200         0.8019291632
s   1 1.0 
        0.4647474100        -0.4011648063
s   1 1.0 
        0.1850453600         0.2010799377
p   4 1.0 
       63.2749548000         3.0898340730
       14.6270493800         3.3923831935
        4.4501223500         2.9482801524
        1.5275799600         1.7113350234
p   1 1.0 
        0.5293511800         0.6436057935
p   1 1.0 
        0.1747842100         0.1610897223
d   1 1.0 
        2.3140000000        12.3767310624
d   1 1.0 
        0.6450000000         1.3234257612
f   1 1.0 
        1.4280000000        12.7097950062

  5 0
s   6 1.0 
    27032.3826310000         1.4645050749
     4052.3871392000         1.8244031008
      922.3272271000         2.8547160967
      261.2407098900         4.3654874290
       85.3546413500         5.8940772662
       31.0350352400         6.2963020147
s   1 1.0 
       12.2608607300         4.6698272139
s   1 1.0 
        4.9987076000         2.3826123703
s   1 1.0 
        1.1703108200         0.8019291632
s   1 1.0 
        0.4647474100        -0.4011648063
s   1 1.0 
        0.1850453600         0.2010799377
p   4 1.0 
       63.2749548000         3.0898340730
       14.6270493800         3.3923831935
        4.4501223500         2.9482801524
        1.5275799600         1.7113350234
p   1 1.0 
        0.5293511800         0.6436057935
p   1 1.0 
        0.1747842100         0.1610897223
d   1 1.0 
        2.3140000000        12.3767310624
d   1 1.0 
        0.6450000000         1.3234257612
f   1 1.0 
        1.4280000000        12.7097950062

  6 0
s   3 1.0 
       34.0613410000         0.2556300129
        5.1235746000         0.4613599287
        1.1646626000         0.6811215012
s   1 1.0 
        0.3272304100         0.3083545312
s   1 1.0 
        0.1030724100         0.1296483265
p   1 1.0 
        0.8000000000         1.0784563492

  7 0
s   3 1.0 
       34.0613410000         0.2556300129
        5.1235746000         0.4613599287
        1.1646626000         0.6811215012
s   1 1.0 
        0.3272304100         0.3083545312
s   1 1.0 
        0.1030724100         0.1296483265
p   1 1.0 
        0.8000000000         1.0784563492

[5D]
[7F]
[9G]
[MO]
 Sym=     1a
 Ene= -4.26058531128481E+03
 Spin= Alpha
 Occup= 2.000000
  1       0.084983962313
  2       0.065169455995
  3       0.111711669168
  4       0.177550115940
  5       0.264431319110
  6       0.303181683825
  7       0.192924370448
  8       0.032220608281
  9       0.000869387736
 10      -0.000612604161
 11       0.000447947149
 12      -0.000333041883
 13       0.000238081760
 14      -0.000162152869
 15       0.000110374597
 16      -0.000077116673
 17       0.000054593720
 18      -0.000034089704
 19       0.000005863001
 20      -0.000003813729
 21       0.000001029624
 22       0.000000014282
 23       0.000000100506
 24       0.000000178051
 25      -0.000000015743
 26      -0.000000013685
 27       0.000000001844
 28      -0.000000007960
 29      -0.000000004147
 30       0.000000007033
 31      -0.000000000447
 32      -0.000000003352
 33      -0.000000006572
 34      -0.000000001329
 35       0.000000005317
 36       0.000000014304
 37       0.000000003272
 38      -0.000000007450
 39      -0.000000022701
 40      -0.000000004366
 41       0.000000011529
 42       0.000000034103
 43       0.000000008529
 44      -0.000000014557
 45      -0.000000048723
 46      -0.000000020859
 47       0.000000017354
 48       0.000000074715
 49       0.000000069281
 50      -0.000000009417
 51      -0.000000143132
 52      -0.000000011237
 53      -0.000000102582
 54       0.000000022548
 55      -0.000001661484
 56       0.000000640925
 57       0.000001512016
 58       0.000000138220
 59      -0.000000082964
 60      -0.000000027225
 61       0.000000001296
 62      -0.000000008315
 63      -0.000000001766
 64       0.000000004708
 65       0.000000001291
 66      -0.000000010155
 67       0.000000027733
 68      -0.000000021548
 69      -0.000000019287
 70      -0.000000030332
 71      -0.000000013469
 72      -0.000000003093
 73      -0.000000043506
 74       0.000000000809
 75      -0.000000030264
 76       0.000000028525
 77      -0.000000008754
 78       0.000000091327
 79       0.000000009175
 80       0.000000073336
 81      -0.000000057615
 82       0.000000029645
 83      -0.000000181838
 84      -0.000000026641
 85      -0.000000153056
 86       0.000000104874
 87      -0.000000059409
 88       0.000000329434
 89       0.000000051079
 90       0.000000279076
 91      -0.000000119621
 92       0.000000016566
 93      -0.000000399264
 94      -0.000000016462
 95      -0.000000299130
 96      -0.000000085589
 97       0.000000427188
 98      -0.000000010479
 99      -0.000000306336
100      -0.000000229544
101       0.000000308984
102       0.000000407406
103       0.000002149503
104       0.000000160062
105       0.000001674613
106      -0.000000137043
107       0.000000077242
108      -0.000000429497
109      -0.000000186341
110      -0.000000383929
111       0.000000004326
112       0.000000011889
113      -0.000000006901
114      -0.000000010054
115      -0.000000008163
116      -0.000000008721
117      -0.000000001826
118      -0.000000012665
119      -0.000000034876
120       0.000000019380
121       0.000000029651
122       0.000000023658
123       0.000000025493
124       0.000000005434
125       0.000000026173
126       0.000000075068
127      -0.000000042621
128      -0.000000063760
129      -0.000000050378
130      -0.000000054389
131      -0.000000012898
132      -0.000000049527
133      -0.000000146161
134       0.000000084674
135       0.000000124085
136       0.000000098229
137       0.000000105260
138       0.000000026270
139       0.000000088281
140       0.000000247186
141      -0.000000133414
142      -0.000000211741
143      -0.000000176076
144      -0.000000179745
145      -0.000000034284
146      -0.000000155212
147      -0.000000219222
148      -0.000000076488
149       0.000000218917
150       0.000000216059
151       0.000000179267
152      -0.000000092603
153      -0.000000047408
154      -0.000000762972
155       0.000000395085
156       0.000000808124
157       0.000000251893
158       0.000000270027
159       0.000000414295
160      -0.000000021373
161       0.000000101413
162      -0.000000207139
163       0.000000907846
164       0.000002038493
165       0.000005537453
166      -0.000000048996
167       0.000000066053
168      -0.000000031217
169       0.000000299709
170      -0.000000452787
171       0.000000314750
172      -0.000001093395
173       0.000001323500
174      -0.000000912615
175      -0.000000002891
176      -0.000000010344
177       0.000000023385
178       0.000000001382
179       0.000000004734
180      -0.000000006924
181      -0.000000180992
182       0.000000320468
183       0.000000158753
184       0.000000237696
185      -0.000000046076
186       0.000000021133
187      -0.000000027018
188      -0.000000046167
189      -0.000000080793
190       0.000000054463
191       0.000000002112
192      -0.000000020213
193       0.000000096379
194      -0.000000198105
195       0.000000861609
196       0.000001848342
197       0.000004548258
198       0.000000039350
199      -0.000000075029
200       0.000000045745
201      -0.000000306168
202       0.000000491284
203      -0.000000222791
204       0.000000662671
205      -0.000001345844
206       0.000000692869
207       0.000000012821
208       0.000000004870
209       0.000000005435
210       0.000000000380
211       0.000000011061
212       0.000000170280
213      -0.000000149030
214       0.000000162369
215       0.000000112069
216       0.000000371240
217       0.000000052165
218       0.000000027184
219      -0.000000033844
220       0.000000017644
221       0.000000067004
222      -0.000000089993
223      -0.000000027719
224      -0.000000011187
225       0.000000049712
226      -0.000000085894
227       0.000000081153
228      -0.000000046452
229       0.000000711092
230       0.000000051920
231       0.000000007641
232       0.000000035280
233      -0.000000062373
234       0.000000210520
235      -0.000000091484
236       0.000000330956
237       0.000000412511
238       0.000000328298
239      -0.000000019309
240      -0.000000003763
241       0.000000039243
242       0.000000009945
243       0.000000066819
244       0.000000036923
245       0.000000116743
246      -0.000000106353
247      -0.000000000906
248      -0.000000164785
249       0.000000082237
250       0.000000017446
251       0.000000040101
252      -0.000000009471
253      -0.000000062417
254      -0.000000088357
255       0.000000053741
256      -0.000000042818
257       0.000000194656
258      -0.000000360206
259       0.000001026205
260       0.000002330511
261       0.000003787997
262      -0.000000039658
263      -0.000000003431
264       0.000000032303
265      -0.000000339434
266      -0.000000024644
267       0.000000365110
268      -0.000002913189
269      -0.000000179556
270       0.000002852014
271       0.000000021183
272      -0.000000086803
273      -0.000000005649
274       0.000000045072
275       0.000000012823
276      -0.000000119870
277       0.000000451139
278       0.000000023283
279      -0.000000230264
280      -0.000000045777
281       0.000000016804
282       0.000000033795
283       0.000000006262
284      -0.000000042546
285      -0.000000022834
286      -0.000000017483
287      -0.000000015973
288      -0.000000045368
289      -0.000000465110
290       0.000000489744
291      -0.000000161630
292      -0.000000114051
293      -0.000000088496
294       0.000000090179
295       0.000002095934
296       0.000000902734
297      -0.000000355859
298       0.000000006538
299       0.000000382421
 Sym=     1a
 Ene= -8.04540494385061E+02
 Spin= Alpha
 Occup= 2.000000
  1      -0.035877014220
  2      -0.029713805106
  3      -0.049764751310
  4      -0.086682995207
  5      -0.138726486952
  6      -0.177777205076
  7      -0.072230579322
  8       0.369139389332
  9       0.610967122834
 10       0.169953790817
 11      -0.002094001503
 12       0.001805109111
 13      -0.000970793145
 14       0.000507150732
 15      -0.000290012373
 16       0.000191983294
 17      -0.000132983407
 18       0.000081930759
 19      -0.000014251973
 20       0.000009178272
 21      -0.000002472442
 22      -0.000000528577
 23      -0.000000246435
 24       0.000000549058
 25      -0.000000822283
 26      -0.000000243780
 27       0.000001151311
 28      -0.000001456829
 29      -0.000000306035
 30       0.000002226920
 31      -0.000001059596
 32      -0.000000309005
 33       0.000001548418
 34      -0.000000150503
 35      -0.000000176495
 36       0.000000006054
 37      -0.000000037958
 38       0.000000016498
 39       0.000000087400
 40       0.000000010875
 41      -0.000000061238
 42      -0.000000142398
 43      -0.000000016113
 44       0.000000045386
 45       0.000000129946
 46       0.000000059603
 47      -0.000000014199
 48      -0.000000146257
 49      -0.000000169330
 50       0.000000000801
 51       0.000000308130
 52       0.000000015663
 53       0.000000250988
 54      -0.000000006792
 55       0.000003960657
 56      -0.000001518940
 57      -0.000003619447
 58      -0.000000324850
 59       0.000000197922
 60       0.000000061120
 61       0.000000270311
 62      -0.000000782375
 63       0.000000696671
 64       0.000000573348
 65       0.000000953800
 66       0.000000782224
 67      -0.000001205151
 68       0.000001861781
 69       0.000000839874
 70       0.000001930355
 71      -0.000000183362
 72       0.000000375638
 73      -0.000000342415
 74      -0.000000242141
 75      -0.000000401278
 76       0.000000105458
 77      -0.000000237811
 78       0.000000170620
 79       0.000000151564
 80       0.000000217285
 81       0.000000023653
 82       0.000000077196
 83       0.000000172310
 84      -0.000000036348
 85       0.000000114609
 86      -0.000000213545
 87       0.000000094839
 88      -0.000000709325
 89      -0.000000091590
 90      -0.000000596137
 91       0.000000230790
 92       0.000000032888
 93       0.000000822170
 94      -0.000000012646
 95       0.000000587923
 96       0.000000226395
 97      -0.000001026395
 98       0.000000063810
 99       0.000000735178
100       0.000000568042
101      -0.000000740948
102      -0.000000977197
103      -0.000005120039
104      -0.000000373399
105      -0.000003980793
106       0.000000329095
107      -0.000000188515
108       0.000001026175
109       0.000000446221
110       0.000000917509
111       0.000000046438
112       0.000000162493
113      -0.000000154145
114      -0.000000127470
115      -0.000000120098
116      -0.000000118072
117      -0.000000036409
118       0.000000027927
119       0.000000035357
120       0.000000019917
121      -0.000000035810
122      -0.000000024000
123      -0.000000030071
124       0.000000010212
125      -0.000000076277
126      -0.000000177615
127       0.000000073018
128       0.000000154665
129       0.000000122293
130       0.000000133641
131       0.000000015068
132       0.000000117961
133       0.000000326978
134      -0.000000172665
135      -0.000000279892
136      -0.000000220446
137      -0.000000237948
138      -0.000000051203
139      -0.000000202622
140      -0.000000554055
141       0.000000286350
142       0.000000476231
143       0.000000395695
144       0.000000404748
145       0.000000071256
146       0.000000356835
147       0.000000493453
148       0.000000193757
149      -0.000000497988
150      -0.000000494742
151      -0.000000403327
152       0.000000222250
153       0.000000121370
154       0.000001827268
155      -0.000000939724
156      -0.000001932852
157      -0.000000606404
158      -0.000000653633
159      -0.000000982408
160       0.000000044407
161      -0.000000221720
162       0.000000459285
163      -0.000002096402
164      -0.000004812397
165      -0.000013150582
166       0.000000109197
167      -0.000000143078
168       0.000000064477
169      -0.000000708701
170       0.000001066095
171      -0.000000733909
172       0.000002604348
173      -0.000003155706
174       0.000002173082
175       0.000000006520
176       0.000000030397
177      -0.000000066642
178      -0.000000008417
179      -0.000000019175
180       0.000000014401
181       0.000000413817
182      -0.000000729175
183      -0.000000363336
184      -0.000000544266
185       0.000000095120
186      -0.000000044409
187       0.000000053425
188       0.000000094219
189       0.000000168147
190      -0.000000112845
191      -0.000000005983
192       0.000000041843
193      -0.000000210411
194       0.000000439105
195      -0.000001993163
196      -0.000004371007
197      -0.000010808820
198      -0.000000083942
199       0.000000165455
200      -0.000000102969
201       0.000000721317
202      -0.000001159475
203       0.000000532172
204      -0.000001581691
205       0.000003207079
206      -0.000001652256
207      -0.000000036179
208      -0.000000006957
209      -0.000000019029
210      -0.000000004493
211      -0.000000038197
212      -0.000000389248
213       0.000000344770
214      -0.000000373172
215      -0.000000257647
216      -0.000000852062
217      -0.000000110961
218      -0.000000057064
219       0.000000070672
220      -0.000000037067
221      -0.000000142282
222       0.000000190592
223       0.000000057140
224       0.000000024808
225      -0.000000117496
226       0.000000205808
227      -0.000000210970
228       0.000000088124
229      -0.000001678726
230      -0.000000126722
231      -0.000000021784
232      -0.000000085833
233       0.000000162257
234      -0.000000482147
235       0.000000225651
236      -0.000000779552
237      -0.000000975708
238      -0.000000779625
239       0.000000046839
240       0.000000006896
241      -0.000000094524
242      -0.000000023253
243      -0.000000160844
244      -0.000000095023
245      -0.000000265147
246       0.000000262506
247       0.000000001534
248       0.000000408801
249      -0.000000198997
250      -0.000000042540
251      -0.000000096624
252       0.000000022261
253       0.000000153850
254       0.000000214089
255      -0.000000131101
256       0.000000094281
257      -0.000000448131
258       0.000000842800
259      -0.000002445152
260      -0.000005555675
261      -0.000009020410
262       0.000000097612
263       0.000000008324
264      -0.000000080395
265       0.000000776429
266       0.000000056914
267      -0.000000835315
268       0.000006923190
269       0.000000425913
270      -0.000006781799
271      -0.000000050774
272       0.000000206323
273       0.000000013217
274      -0.000000106917
275      -0.000000030150
276       0.000000290721
277      -0.000001088225
278      -0.000000056592
279       0.000000554530
280       0.000000109676
281      -0.000000041184
282      -0.000000085722
283      -0.000000015387
284       0.000000106514
285       0.000000054987
286       0.000000043653
287       0.000000038345
288       0.000000107385
289       0.000001101884
290      -0.000001165194
291       0.000000381691
292       0.000000272214
293       0.000000208185
294      -0.000000215796
295      -0.000004962557
296      -0.000002159147
297       0.000000839977
298      -0.000000015667
299      -0.000000902145
 Sym=     1a
 Ene= -6.75196757407202E+02
 Spin= Alpha
 Occup= 2.000000
  1      -0.000000216800
  2      -0.000000181084
  3      -0.000000299724
  4      -0.000000535544
  5      -0.000000835248
  6      -0.000001116366
  7      -0.000000294460
  8       0.000002533984
  9       0.000004026077
 10      -0.000000475229
 11       0.000000963628
 12      -0.000001894292
 13       0.000003252395
 14      -0.000005582739
 15       0.000011009342
 16      -0.000027865914
 17       0.000071391911
 18      -0.000122558014
 19       0.000051721727
 20      -0.000008386400
 21      -0.000000242020
 22       0.137361769989
 23       0.025132457072
 24      -0.110607753321
 25       0.233829505547
 26       0.042782740887
 27      -0.188286382367
 28       0.352365015565
 29       0.064470590081
 30      -0.283734761016
 31       0.185346031962
 32       0.033911927625
 33      -0.149246066485
 34       0.006213102787
 35       0.001136321626
 36      -0.005003811610
 37       0.003383421284
 38       0.000619871713
 39      -0.002722920076
 40      -0.002352769549
 41      -0.000431810231
 42       0.001892052358
 43       0.001465404822
 44       0.000270351355
 45      -0.001175786052
 46      -0.000915743719
 47      -0.000171245970
 48       0.000729989346
 49       0.000603173363
 50       0.000115790835
 51      -0.000472544521
 52      -0.000415389203
 53      -0.000085587842
 54       0.000311402872
 55       0.000281564018
 56       0.000079457890
 57      -0.000185153364
 58      -0.000038333577
 59      -0.000008330957
 60       0.000028452765
 61      -0.000000082502
 62       0.000000174250
 63       0.000000148760
 64      -0.000000021578
 65      -0.000000161049
 66      -0.000000028550
 67       0.000001141499
 68       0.000000415128
 69      -0.000000689226
 70      -0.000000222748
 71       0.000000583618
 72      -0.000002303251
 73      -0.000000094291
 74       0.000001256747
 75       0.000000450505
 76      -0.000001282755
 77       0.000004134251
 78       0.000000169654
 79      -0.000002121528
 80      -0.000000520686
 81       0.000002628962
 82      -0.000007866312
 83      -0.000000251745
 84       0.000003945807
 85       0.000000844510
 86      -0.000005583766
 87       0.000016356274
 88       0.000000517696
 89      -0.000008144510
 90      -0.000001657054
 91       0.000013311083
 92      -0.000038504699
 93      -0.000001554229
 94       0.000019086737
 95       0.000003739733
 96      -0.000027374129
 97       0.000078253111
 98       0.000004253160
 99      -0.000038860466
100      -0.000007337617
101       0.000052672799
102      -0.000134340212
103      -0.000010278643
104       0.000066731595
105      -0.000002953819
106      -0.000007332057
107       0.000017772067
108       0.000000846851
109      -0.000007193860
110       0.000001286967
111       0.000000014886
112       0.000000723360
113      -0.000000770857
114      -0.000000985281
115      -0.000000013022
116      -0.000000276791
117      -0.000000968058
118      -0.000000047718
119      -0.000000765158
120       0.000000305922
121       0.000000934617
122      -0.000000040543
123       0.000000210954
124       0.000000589204
125       0.000000130853
126       0.000001108105
127       0.000000136228
128      -0.000001275332
129       0.000000094975
130      -0.000000223919
131      -0.000000393746
132      -0.000000342080
133      -0.000002205499
134      -0.000000799779
135       0.000002518055
136      -0.000000177517
137       0.000000380231
138       0.000000391111
139       0.000001014282
140       0.000006720255
141       0.000002385737
142      -0.000007830945
143       0.000000291061
144      -0.000001093171
145      -0.000001200708
146      -0.000002902490
147      -0.000020972614
148      -0.000007404572
149       0.000025132581
150       0.000000775644
151       0.000002940615
152       0.000003361860
153      -0.000001685388
154       0.000034322916
155       0.000003769376
156      -0.000041349769
157       0.000009995752
158       0.000000206879
159      -0.000012442960
160      -0.000000197396
161       0.000000894246
162      -0.000001614733
163       0.000006667715
164       0.000023845225
165       0.000050241599
166       0.000000510990
167       0.000000174896
168       0.000000134551
169       0.000001985077
170      -0.000006822063
171       0.000003807970
172       0.000001710806
173       0.000011789459
174      -0.000012560815
175       0.000000219175
176      -0.000001139892
177       0.000000403527
178       0.000000426377
179       0.000000382869
180       0.000001092686
181       0.000001717317
182      -0.000000707301
183      -0.000001350650
184       0.000001699466
185       0.000001093184
186      -0.000000314734
187       0.000000984498
188       0.000001451199
189       0.000001944537
190      -0.000001554841
191      -0.000000112404
192      -0.000000253749
193       0.000001172512
194      -0.000002189092
195       0.000009159067
196       0.000030352956
197       0.000054219794
198       0.000000687787
199       0.000000160344
200       0.000000094977
201      -0.000008495321
202       0.000007696173
203      -0.000003785174
204       0.000016974944
205      -0.000005959584
206       0.000000189118
207       0.000000519304
208      -0.000000841862
209       0.000000215808
210       0.000000651636
211       0.000000449388
212      -0.000001065104
213       0.000000775348
214       0.000002288481
215       0.000000320385
216       0.000000420424
217      -0.000000956758
218      -0.000000799105
219       0.000000729164
220      -0.000000643377
221      -0.000001407087
222       0.000002081455
223       0.000000953810
224      -0.000000784852
225       0.000003736358
226      -0.000007173219
227       0.000022245199
228       0.000047035390
229       0.000094878137
230       0.000002314129
231       0.000002248577
232       0.000000618982
233      -0.000005913580