[Molden Format]
[Title]
 Molden file created by orca_2mkl for BaseName=/data01/Nikolayandreadi/heavy/simpleIons/OH_-

[Atoms] AU
O    1   8         -0.0152047365        -0.0304964003         0.0000000000 
H    2   1         -0.5499575481         1.7214686984         0.0000000000 
[GTO]
  1 0
s   6 1.0 
    27032.3826310000         1.4645050749
     4052.3871392000         1.8244031008
      922.3272271000         2.8547160967
      261.2407098900         4.3654874290
       85.3546413500         5.8940772662
       31.0350352400         6.2963020147
s   1 1.0 
       12.2608607300         4.6698272139
s   1 1.0 
        4.9987076000         2.3826123703
s   1 1.0 
        1.1703108200         0.8019291632
s   1 1.0 
        0.4647474100        -0.4011648063
s   1 1.0 
        0.1850453600         0.2010799377
p   4 1.0 
       63.2749548000         3.0898340730
       14.6270493800         3.3923831935
        4.4501223500         2.9482801524
        1.5275799600         1.7113350234
p   1 1.0 
        0.5293511800         0.6436057935
p   1 1.0 
        0.1747842100         0.1610897223
d   1 1.0 
        2.3140000000        12.3767310624
d   1 1.0 
        0.6450000000         1.3234257612
f   1 1.0 
        1.4280000000        12.7097950062
s   1 1.0 
        0.0616817867         0.0882120269
p   1 1.0 
        0.0582614033         0.0408005732

  2 0
s   3 1.0 
       34.0613410000         0.2556300129
        5.1235746000         0.4613599287
        1.1646626000         0.6811215012
s   1 1.0 
        0.3272304100         0.3083545312
s   1 1.0 
        0.1030724100         0.1296483265
p   1 1.0 
        0.8000000000         1.0784563492

[5D]
[7F]
[9G]
[MO]
 Sym=     1a
 Ene= -2.02009862909205E+01
 Spin= Alpha
 Occup= 2.000000
  1      -0.436287890120
  2      -0.411846533459
  3      -0.251228631479
  4      -0.023009927476
  5      -0.009958786015
  6      -0.004313612086
  7       0.000411446174
  8      -0.001347986064
  9       0.000000000000
 10      -0.000503865479
 11       0.001650771560
 12      -0.000000000000
 13       0.000117149785
 14      -0.000383807864
 15       0.000000000000
 16       0.000027701438
 17      -0.000000000000
 18       0.000000000000
 19       0.000039802013
 20       0.000026793820
 21      -0.000330364107
 22      -0.000000000000
 23       0.000000000000
 24      -0.000474674144
 25      -0.000319539961
 26       0.000000000000
 27       0.000020442424
 28      -0.000066973772
 29       0.000000000000
 30       0.000000000000
 31      -0.000070176407
 32       0.000056987453
 33       0.000002017582
 34       0.000111839931
 35      -0.000366411642
 36      -0.000000000000
 37      -0.000592350124
 38      -0.001375796451
 39       0.001675728035
 40      -0.000206364573
 41       0.000676094677
 42       0.000000000000
 Sym=     1a
 Ene= -9.02137962762109E-01
 Spin= Alpha
 Occup= 2.000000
  1       0.097950272875
  2       0.148277081656
  3       0.097246445602
  4      -0.346057077376
  5       0.451703033255
  6      -0.208979136505
  7       0.015588378567
  8      -0.051070877236
  9      -0.000000000000
 10       0.014780103936
 11      -0.048422795894
 12      -0.000000000002
 13       0.002141532632
 14      -0.007016120994
 15       0.000000000004
 16       0.002213508817
 17      -0.000000000000
 18       0.000000000000
 19       0.003180416337
 20       0.002140984767
 21       0.005544239856
 22      -0.000000000000
 23       0.000000000001
 24       0.007966081219
 25       0.005362586760
 26       0.000000000000
 27      -0.000717887872
 28       0.002351954901
 29       0.000000000000
 30       0.000000000000
 31       0.002464423630
 32      -0.002001259835
 33      -0.018165423065
 34       0.000492012624
 35      -0.001611939062
 36      -0.000000000002
 37      -0.100483914607
 38      -0.085970341274
 39      -0.007981937330
 40      -0.005159891610
 41       0.016904913480
 42       0.000000000000
 Sym=     1a
 Ene= -2.49515089446528E-01
 Spin= Alpha
 Occup= 2.000000
  1       0.030118319036
  2       0.046699834882
  3       0.029917289485
  4      -0.119425481102
  5       0.153650385769
  6      -0.239180947968
  7      -0.104099827073
  8       0.341053398589
  9      -0.000000000000
 10      -0.089099543320
 11       0.291909246312
 12      -0.000000000001
 13      -0.043047064386
 14       0.141031431277
 15       0.000000000002
 16      -0.005053225611
 17       0.000000000000
 18      -0.000000000000
 19      -0.007260581554
 20      -0.004887660249
 21      -0.010947584855
 22      -0.000000000000
 23       0.000000000000
 24      -0.015729721724
 25      -0.010588894983
 26       0.000000000000
 27       0.000998886817
 28      -0.003272567816
 29       0.000000000000
 30       0.000000000000
 31      -0.003429059569
 32       0.002784602088
 33      -0.081073605825
 34      -0.009590503826
 35       0.031420550986
 36      -0.000000000001
 37       0.160082602562
 38       0.257736743860
 39       0.178250866495
 40       0.004705282183
 41      -0.015415515328
 42       0.000000000000
 Sym=     1a
 Ene= -1.08360869960845E-01
 Spin= Alpha
 Occup= 2.000000
  1       0.000000000000
  2       0.000000000000
  3       0.000000000000
  4      -0.000000000000
  5       0.000000000000
  6       0.000000000001
  7       0.282278401664
  8       0.086159917835
  9       0.316126455279
 10       0.253692632504
 11       0.077434675282
 12       0.284112961428
 13       0.200274811279
 14       0.061129938326
 15       0.224289799709
 16      -0.000000000000
 17      -0.000652635835
 18       0.002138175211
 19      -0.001165514606
 20       0.001731362946
 21      -0.000000000000
 22      -0.003770724749
 23       0.012353704391
 24      -0.006733977100
 25       0.010003270978
 26      -0.001735341490
 27      -0.000632595551
 28      -0.000193087322
 29      -0.001858452294
 30      -0.001251068297
 31       0.001614811662
 32       0.001988537396
 33       0.000000000000
 34       0.091752943610
 35       0.028005777402
 36       0.102755055483
 37       0.000000000000
 38      -0.000000000000
 39      -0.000000000001
 40       0.017146279248
 41       0.005233563753
 42       0.019202292658
 Sym=     1a
 Ene= -1.08360869960585E-01
 Spin= Alpha
 Occup= 2.000000
  1       0.000000000000
  2      -0.000000000000
  3       0.000000000000
  4      -0.000000000001
  5      -0.000000000001
  6      -0.000000000002
  7      -0.302355503031
  8      -0.092288057267
  9       0.295134930985
 10      -0.271736565971
 11      -0.082942230290
 12       0.265247206815
 13      -0.214519392740
 14      -0.065477816027
 15       0.209396440734
 16      -0.000000000000
 17      -0.000609299314
 18       0.001996195455
 19       0.001248412039
 20      -0.001854506443
 21      -0.000000000000
 22      -0.003520339946
 23       0.011533389983
 24       0.007212932415
 25      -0.010714755400
 26      -0.001620110821
 27       0.000677589022
 28       0.000206820692
 29      -0.001735046784
 30      -0.001167994482
 31      -0.001729665428
 32      -0.002129972470
 33      -0.000000000001
 34      -0.098278887992
 35      -0.029997693287
 36       0.095931883277
 37       0.000000000000
 38      -0.000000000001
 39       0.000000000004
 40      -0.018365811399
 41      -0.005605801902
 42       0.017927216225
 Sym=     1a
 Ene= 3.12589662314104E-01
 Spin= Alpha
 Occup= 0.000000
  1      -0.011486819180
  2      -0.013817709838
  3      -0.020806823405
  4       0.087107166656
  5       0.116492126574
  6       0.678053990514
  7      -0.022251018703
  8       0.072899117742
  9       0.000000000000
 10      -0.034146253356
 11       0.111870462069
 12      -0.000000000001
 13      -0.089080664833
 14       0.291847396330
 15       0.000000000003
 16       0.001183121824
 17       0.000000000000
 18      -0.000000000000
 19       0.001699934488
 20       0.001144357674
 21      -0.031063517314
 22      -0.000000000000
 23       0.000000000000
 24      -0.044632719416
 25      -0.030045743148
 26       0.000000000000
 27       0.001584823055
 28      -0.005192220815
 29       0.000000000000
 30       0.000000000000
 31      -0.005440508942
 32       0.004418019650
 33      -2.272940753534
 34       0.436978396885
 35      -1.431635109856
 36      -0.000000000003
 37       0.035968280718
 38      -0.426616428613
 39       1.767567086461
 40      -0.011843573255
 41       0.038802090490
 42      -0.000000000000
 Sym=     1a
 Ene= 3.60352581084740E-01
 Spin= Alpha
 Occup= 0.000000
  1      -0.019602303160
  2      -0.022052885200
  3      -0.040053334306
  4       0.196269360189
  5       0.318654477788
  6       1.085323077812
  7       0.015961778789
  8      -0.052294216588
  9      -0.000000000007
 10      -0.005830147695
 11       0.019100816414
 12       0.000000000003
 13       0.117245972054
 14      -0.384122993908
 15      -0.000000000036
 16      -0.000320249041
 17       0.000000000000
 18      -0.000000000000
 19      -0.000460140603
 20      -0.000309756307
 21       0.009829951669
 22       0.000000000000
 23      -0.000000000001
 24       0.014123882697
 25       0.009507880258
 26      -0.000000000000
 27      -0.000432276658
 28       0.001416231203
 29      -0.000000000000
 30       0.000000000000
 31       0.001483954323
 32      -0.001205059936
 33      -0.943221182301
 34      -0.314309239819
 35       1.029744596739
 36       0.000000000063
 37      -0.026555234055
 38       0.088330341760
 39      -0.498892103291
 40       0.004533074748
 41      -0.014851326772
 42      -0.000000000000
 Sym=     1a
 Ene= 3.65026303941845E-01
 Spin= Alpha
 Occup= 0.000000
  1       0.000000000001
  2       0.000000000001
  3       0.000000000001
  4      -0.000000000006
  5      -0.000000000011
  6      -0.000000000038
  7      -0.112100244348
  8      -0.034216389865
  9      -0.110057279519
 10      -0.005655032442
 11      -0.001726087182
 12      -0.005551972609
 13      -0.467960528645
 14      -0.142835726914
 15      -0.459432207347
 16       0.000000000000
 17       0.000105324081
 18      -0.000345064317
 19       0.000214558369
 20      -0.000318724800
 21      -0.000000000000
 22       0.001755911159
 23      -0.005752742201
 24       0.003577011367
 25      -0.005313622762
 26       0.001007998964
 27       0.000419152679
 28       0.000127938093
 29       0.001079509709
 30       0.000726701663
 31      -0.001069961104
 32      -0.001317588742
 33       0.000000000031
 34       0.917929025202
 35       0.280179740681
 36       0.901200277415
 37       0.000000000001
 38      -0.000000000002
 39       0.000000000018
 40       0.003891622958
 41       0.001187841197
 42       0.003820700287
 Sym=     1a
 Ene= 3.65026303942033E-01
 Spin= Alpha
 Occup= 0.000000
  1      -0.000000000001
  2      -0.000000000001
  3      -0.000000000001
  4       0.000000000006
  5       0.000000000010
  6       0.000000000034
  7      -0.105263015972
  8      -0.032129460682
  9       0.117205913325
 10      -0.005310120185
 11      -0.001620809513
 12       0.005912594091
 13      -0.439418637193
 14      -0.134123877194
 15       0.489274055363
 16      -0.000000000000
 17      -0.000112165276
 18       0.000367477541
 19       0.000201472005
 20      -0.000299285108
 21       0.000000000000
 22      -0.001869964186
 23       0.006126404420
 24       0.003358841962
 25      -0.004989533795
 26      -0.001073472284
 27       0.000393587680
 28       0.000120134881
 29      -0.001149627920
 30      -0.000773903666
 31      -0.001004701938
 32      -0.001237226249
 33      -0.000000000028
 34       0.861942613963
 35       0.263090992332
 36      -0.959736621369
 37      -0.000000000001
 38       0.000000000002
 39      -0.000000000016
 40       0.003654264734
 41       0.001115392277
 42      -0.004068869126
 Sym=     1a
 Ene= 5.07451087998956E-01
 Spin= Alpha
 Occup= 0.000000
  1      -0.012156246219
  2      -0.013753148263
  3      -0.024924787813
  4       0.136132909208
  5       0.285554730713
  6       1.088397001655
  7      -0.052665333118
  8       0.172542946062
  9       0.000000000000
 10       0.012758488351
 11      -0.041799548910
 12       0.000000000001
 13      -0.243646048456
 14       0.798236800341
 15      -0.000000000001
 16       0.000371692615
 17       0.000000000000
 18      -0.000000000000
 19       0.000534055819
 20       0.000359514369
 21       0.023091433555
 22       0.000000000000
 23      -0.000000000000
 24       0.033178260669
 25       0.022334859073
 26      -0.000000000000
 27      -0.000972637744
 28       0.003186570215
 29      -0.000000000000
 30      -0.000000000000
 31       0.003338949626
 32      -0.002711427408
 33       3.010857675365
 34      -0.399192234862
 35       1.307839524983
 36      -0.000000000000
 37      -0.053403317372
 38       0.412091678834
 39      -4.933436669772
 40       0.026848832427
 41      -0.087962543312
 42      -0.000000000000
 Sym=     1a
 Ene= 9.75239163122639E-01
 Spin= Alpha
 Occup= 0.000000
  1       0.010999300320
  2       0.020420733105
  3       0.002892697038
  4       0.035106215526
  5       0.237566558019
  6      -0.965541046546
  7      -0.000293459961
  8       0.000961437879
  9       0.000000000003
 10       0.031589716345
 11      -0.103494697567
 12       0.000000000008
 13       0.540387548439
 14      -1.770425707060
 15      -0.000000000016
 16      -0.017362579489
 17      -0.000000000000
 18       0.000000000000
 19      -0.024946921845
 20      -0.016793706857
 21       0.078299950954
 22       0.000000000000
 23      -0.000000000000
 24       0.112503027454
 25       0.075734508462
 26      -0.000000000000
 27      -0.003668355159
 28       0.012018319620
 29      -0.000000000000
 30      -0.000000000000
 31       0.012593026701
 32      -0.010226293167
 33       1.292400016623
 34      -0.332270423811
 35       1.088589294313
 36       0.000000000007
 37       0.097898560010
 38       2.685144530050
 39      -2.258572022006
 40       0.051346080767
 41      -0.168220791928
 42       0.000000000000
 Sym=     1a
 Ene= 1.06662331820022E+00
 Spin= Alpha
 Occup= 0.000000
  1      -0.050172608630
  2      -0.110893536857
  3       0.026947280228
  4      -0.275864665785
  5      -2.440005936111
  6      -3.532514907697
  7      -0.054436866788
  8       0.178346870987
  9       0.000000000036
 10      -0.132459670454
 11       0.433966338473
 12       0.000000000108
 13       0.284762344361
 14      -0.932942619386
 15      -0.000000000217
 16      -0.003527503036
 17      -0.000000000000
 18       0.000000000001
 19      -0.005068391054
 20      -0.003411926895
 21       0.015262893350
 22       0.000000000001
 23      -0.000000000002
 24       0.021930048342
 25       0.014762815449
 26      -0.000000000000
 27      -0.000071861482
 28       0.000235433653
 29      -0.000000000000
 30      -0.000000000000
 31       0.000246691914
 32      -0.000200328634
 33      -0.217098343880
 34       0.117639341424
 35      -0.385411756421
 36       0.000000000090
 37      -0.064809511524
 38      -0.305275758917
 39       2.226045284610
 40       0.011733073046
 41      -0.038440068059
 42       0.000000000001
 Sym=     1a
 Ene= 1.08779030747809E+00
 Spin= Alpha
 Occup= 0.000000
  1       0.000000000003
  2       0.000000000007
  3      -0.000000000002
  4       0.000000000021
  5       0.000000000154
  6       0.000000000212
  7      -0.184991403390
  8      -0.056464979361
  9       0.221670005643
 10      -0.545332766570
 11      -0.166452077472
 12       0.653456945717
 13       1.104966821390
 14       0.337269341260
 15      -1.324050723676
 16       0.000000000001
 17      -0.001178418146
 18       0.003860751022
 19       0.001966862644
 20      -0.002921759265
 21      -0.000000000000
 22       0.001456514051
 23      -0.004771852953
 24      -0.002431024240
 25       0.003611267734
 26      -0.000523626588
 27       0.000178398287
 28       0.000054452561
 29      -0.000560774372
 30      -0.000377500698
 31      -0.000455393077
 32      -0.000560787481
 33       0.000000000080
 34      -0.458579504531
 35      -0.139972354211
 36       0.549502947103
 37       0.000000000005
 38       0.000000000060
 39      -0.000000000240
 40      -0.006727587997
 41      -0.002053463621
 42       0.008061479843
 Sym=     1a
 Ene= 1.08779030747948E+00
 Spin= Alpha
 Occup= 0.000000
  1      -0.000000000004
  2      -0.000000000009
  3       0.000000000003
  4      -0.000000000026
  5      -0.000000000205
  6      -0.000000000289
  7      -0.212013720922
  8      -0.064713009069
  9      -0.193416941405
 10      -0.624991361017
 11      -0.190766293042
 12      -0.570170255617
 13       1.266373047631
 14       0.386535409891
 15       1.155293159734
 16      -0.000000000001
 17       0.001028222257
 18      -0.003368677021
 19       0.002254168896
 20      -0.003348550490
 21       0.000000000001
 22      -0.001270873306
 23       0.004163653988
 24      -0.002786132138
 25       0.004138777777
 26       0.000456887493
 27       0.000204457526
 28       0.000062406629
 29       0.000489300587
 30       0.000329386153
 31      -0.000521913878
 32      -0.000642703597
 33      -0.000000000067
 34      -0.525565757660
 35      -0.160418587604
 36      -0.479465767202
 37      -0.000000000006
 38      -0.000000000052
 39       0.000000000259
 40      -0.007710309443
 41      -0.002353419974
 42      -0.007033999796
 Sym=     1a
 Ene= 1.12266991981014E+00
 Spin= Alpha
 Occup= 0.000000
  1       0.023214289276
  2       0.054662081669
  3      -0.019682431773
  4       0.144922064961
  5       1.202640909921
  6       1.828521534432
  7      -0.082629560115
  8       0.270712191299
  9       0.000000000016
 10      -0.250712343568
 11       0.821387501257
 12       0.000000000044
 13       0.326409792915
 14      -1.069388608357
 15      -0.000000000091
 16       0.002459552406
 17      -0.000000000000
 18       0.000000000000
 19       0.003533936976
 20       0.002378966912
 21      -0.010783078263
 22      -0.000000000000
 23       0.000000000000
 24      -0.015493355169
 25      -0.010429778333
 26       0.000000000000
 27       0.001226360873
 28      -0.004017821695
 29       0.000000000000
 30       0.000000000000
 31      -0.004209950932
 32       0.003418732722
 33      -1.667665558221
 34       0.012500909001
 35      -0.040955663629
 36       0.000000000038
 37      -0.051853109885
 38      -1.029687502144
 39       1.803369356706
 40      -0.006416074185
 41       0.021020437480
 42       0.000000000001
 Sym=     1a
 Ene= 1.84431379509901E+00
 Spin= Alpha
 Occup= 0.000000
  1       0.000000000000
  2       0.000000000000
  3      -0.000000000000
  4       0.000000000001
  5       0.000000000005
  6       0.000000000006
  7      -0.052203608186
  8      -0.015934122362
  9       0.001308659863
 10      -0.054051454076
 11      -0.016498140896
 12       0.001354982365
 13      -0.190851689422
 14      -0.058253716124
 15       0.004784342599
 16       0.000000000000
 17      -0.000005571222
 18       0.000018252521
 19       0.000444482039
 20      -0.000660274636
 21      -0.000000000000
 22       0.004023383548
 23      -0.013181468896
 24      -0.320992709927
 25       0.476832191696
 26      -0.000164816503
 27       0.002684100720
 28       0.000819268836
 29      -0.000176509125
 30      -0.000118821974
 31      -0.006851640260
 32      -0.008437357244
 33       0.000000000002
 34       0.050544736693
 35       0.015427784539
 36      -0.001267074648
 37      -0.000000000000
 38       0.000000000001
 39      -0.000000000006
 40       0.585278241572
 41       0.178644646231
 42      -0.014671977115
 Sym=     1a
 Ene= 1.84431379510273E+00
 Spin= Alpha
 Occup= 0.000000
  1       0.000000000000
  2      -0.000000000000
  3       0.000000000001
  4      -0.000000000008
  5      -0.000000000018
  6      -0.000000000006
  7      -0.001251652638
  8      -0.000382042296
  9      -0.054581251022
 10      -0.001295957264
 11      -0.000395565405
 12      -0.056513258098
 13      -0.004575929308
 14      -0.001396712216
 15      -0.199544137465
 16      -0.000000000001
 17       0.000232363112
 18      -0.000761271478
 19       0.000010657063
 20      -0.000015830986
 21      -0.000000000003
 22      -0.167806252148
 23       0.549769334000
 24      -0.007696237606
 25       0.011432701520
 26       0.006874124570
 27       0.000064354972
 28       0.000019643087
 29       0.007361797461
 30       0.004955796521
 31      -0.000164277411
 32      -0.000202297136
 33      -0.000000000003
 34       0.001211878935
 35       0.000369902153
 36       0.052846825288
 37       0.000000000004
 38      -0.000000000018
 39       0.000000000011
 40       0.014032843338
 41       0.004283248817
 42       0.611935069824
 Sym=     1a
 Ene= 2.11423101002542E+00
 Spin= Alpha
 Occup= 0.000000
  1      -0.000000000000
  2       0.000000000000
  3      -0.000000000000
  4       0.000000000000
  5       0.000000000000
  6      -0.000000000000
  7       0.000000000000
  8       0.000000000000
  9       0.000000000000
 10       0.000000000000
 11      -0.000000000000
 12      -0.000000000000
 13       0.000000000000
 14      -0.000000000000
 15       0.000000000000
 16      -0.002016730356
 17      -0.020138868486
 18      -0.006146992628
 19       0.000965893626
 20       0.000650217871
 21       0.096210331139
 22       0.960746785233
 23       0.293249017947
 24      -0.046079013646
 25      -0.031019355904
 26       0.000000000000
 27      -0.000237915505
 28       0.000779462309
 29      -0.005205118188
 30       0.007732162872
 31      -0.000490041369
 32       0.000397942990
 33       0.000000000000
 34      -0.000000000000
 35       0.000000000000
 36      -0.000000000000
 37      -0.000000000000
 38       0.000000000000
 39      -0.000000000000
 40      -0.000000000000
 41      -0.000000000000
 42       0.000000000000
 Sym=     1a
 Ene= 2.11423101002544E+00
 Spin= Alpha
 Occup= 0.000000
  1      -0.000000000000
  2       0.000000000000
  3      -0.000000000000
  4       0.000000000000
  5       0.000000000001
  6       0.000000000000
  7      -0.000000000000
  8       0.000000000000
  9       0.000000000000
 10       0.000000000000
 11      -0.000000000000
 12       0.000000000000
 13       0.000000000000
 14      -0.000000000000
 15       0.000000000000
 16      -0.018235121516
 17       0.002227277036
 18       0.000679832411
 19       0.008733536235
 20       0.005879220221
 21       0.869926450280
 22      -0.106254691208
 23      -0.032432149998
 24      -0.416642914526
 25      -0.280474641884
 26      -0.000000000000
 27      -0.002151213786
 28       0.007047838535
 29       0.000575664925
 30      -0.000855145800
 31      -0.004430916551
 32       0.003598170061
 33       0.000000000000
 34      -0.000000000000
 35       0.000000000000
 36      -0.000000000000
 37      -0.000000000000
 38       0.000000000001
 39      -0.000000000001
 40      -0.000000000000
 41      -0.000000000000
 42      -0.000000000000
 Sym=     1a
 Ene= 2.32662694928465E+00
 Spin= Alpha
 Occup= 0.000000
  1       0.009441075660
  2       0.005041186570
  3       0.038173815996
  4      -0.317028383382
  5      -0.666969170286
  6       0.995264965004
  7       0.031278730274
  8      -0.102475840386
  9       0.000000000003
 10      -0.185415786288
 11       0.607461951126
 12       0.000000000000
 13      -0.291790201182
 14       0.955967388095
 15      -0.000000000003
 16       0.008747037715
 17      -0.000000000000
 18       0.000000000000
 19       0.012567928998
 20       0.008460447213
 21      -0.639162303746
 22       0.000000000001
 23      -0.000000000002
 24      -0.918361931641
 25      -0.618220603106
 26       0.000000000000
 27       0.011732526316
 28      -0.038438276861
 29       0.000000000000
 30       0.000000000000
 31      -0.040276366593
 32       0.032706825951
 33      -1.067785222302
 34       0.191575510378
 35      -0.627642530616
 36       0.000000000002
 37       0.522338191774
 38      -3.335942935765
 39       1.978519603359
 40      -0.119625685018
 41       0.391919444839
 42      -0.000000000003
 Sym=     1a
 Ene= 2.72959611192105E+00
 Spin= Alpha
 Occup= 0.000000
  1       0.000000000000
  2      -0.000000000000
  3       0.000000000001
  4      -0.000000000006
  5      -0.000000000018
  6      -0.000000000000
  7       0.116404579721
  8       0.035530203391
  9      -0.000089056540
 10      -0.006462911638
 11      -0.001972676367
 12       0.000004944518
 13       0.358286649118
 14       0.109359937097
 15      -0.000274110943
 16       0.000000000000
 17      -0.000004908330
 18       0.000016080743
 19       0.012831221302
 20      -0.019060680154
 21      -0.000000000002
 22       0.000218650698
 23      -0.000716346662
 24      -0.571590648474
 25       0.849093494137
 26       0.000000360187
 27      -0.000192201680
 28      -0.000058665775
 29       0.000000385740
 30       0.000000259672
 31       0.000490628671
 32       0.000604177864
 33      -0.000000000009
 34      -0.098188997388
 35      -0.029970255956
 36       0.000075120518
 37       0.000000000006
 38      -0.000000000029
 39       0.000000000019
 40      -1.031505637956
 41      -0.314846762930
 42       0.000789164165
 Sym=     1a
 Ene= 2.72959611192469E+00
 Spin= Alpha
 Occup= 0.000000
  1       0.000000000000
  2       0.000000000000
  3       0.000000000000
  4      -0.000000000002
  5      -0.000000000004
  6       0.000000000001
  7      -0.000085177101
  8      -0.000025998631
  9      -0.121706292086
 10       0.000004729127
 11       0.000001443475
 12       0.006757268597
 13      -0.000262170252
 14      -0.000080022300
 15      -0.374605017023
 16       0.000000000000
 17      -0.006707813264
 18       0.021976237377
 19      -0.000009389031
 20       0.000013947334
 21      -0.000000000000
 22       0.298812033782
 23      -0.978972420282
 24       0.000418251879
 25      -0.000621309937
 26       0.000492238716
 27       0.000000140640
 28       0.000000042928
 29       0.000527159741
 30       0.000354872085
 31      -0.000000359010
 32      -0.000000442097
 33      -0.000000000003
 34       0.000071848154
 35       0.000021930231
 36       0.102661070763
 37       0.000000000003
 38      -0.000000000008
 39       0.000000000006
 40       0.000754786963
 41       0.000230383844
 42       1.078486145143
 Sym=     1a
 Ene= 2.87656807913677E+00
 Spin= Alpha
 Occup= 0.000000
  1       0.015415571448
  2      -0.004607037398
  3       0.098233696656
  4      -0.899658835063
  5      -2.548913040380
  6      -0.098726120708
  7       0.097795049606
  8      -0.320397593075
  9       0.000000000003
 10      -0.563677549663
 11       1.846728754758
 12      -0.000000000002
 13      -0.006334588279
 14       0.020753472132
 15       0.000000000000
 16       0.008983731751
 17      -0.000000000000
 18       0.000000000000
 19       0.012908016001
 20       0.008689386137
 21      -0.134197829462
 22      -0.000000000000
 23       0.000000000001
 24      -0.192818282872
 25      -0.129800932536
 26       0.000000000000
 27       0.031379368915
 28      -0.102805554198
 29       0.000000000000
 30       0.000000000000
 31      -0.107721639125
 32       0.087476433454
 33      -1.108232199840
 34       0.157041222192
 35      -0.514500783074
 36       0.000000000000
 37       0.897230162414
 38      -3.703728459937
 39       2.351571364519
 40      -0.479651220407
 41       1.571440447686
 42      -0.000000000002
 Sym=     1a
 Ene= 3.30668727918643E+00
 Spin= Alpha
 Occup= 0.000000
  1       0.060955409362
  2       0.059193833047
  3       0.174584745092
  4      -0.920124118418
  5      -0.362331662802
  6      -1.671933740342
  7       0.230692291967
  8      -0.755797511061
  9       0.000000000004
 10       0.073347741385
 11      -0.240302959010
 12      -0.000000000005
 13       0.300607796647
 14      -0.984855725236
 15       0.000000000002
 16      -0.014894410988
 17      -0.000000000000
 18       0.000000000000
 19      -0.021400605081
 20      -0.014406406150
 21       0.440341078774
 22       0.000000000000
 23      -0.000000000000
 24       0.632691385761
 25       0.425913614892
 26       0.000000000000
 27      -0.014760881550
 28       0.048359819226
 29       0.000000000000
 30       0.000000000000
 31       0.050672349713
 32      -0.041148987926
 33       0.116555051420
 34      -0.038973536154
 35       0.127685677624
 36      -0.000000000001
 37       0.320037715834
 38       1.828489968489
 39       0.192740371991
 40       0.427229839158
 41      -1.399696740340
 42      -0.000000000000
 Sym=     1a
 Ene= 3.48593489191077E+00
 Spin= Alpha
 Occup= 0.000000
  1      -0.000000000006
  2      -0.000000000004
  3      -0.000000000023
  4       0.000000000151
  5       0.000000000216
  6       0.000000000123
  7      -0.830745488780
  8      -0.253568684827
  9      -0.876389717238
 10       1.185105199015
 11       0.361730001244
 12       1.250219260035
 13      -0.665362686640
 14      -0.203088844490
 15      -0.701920172519
 16       0.000000000000
 17       0.001140915629
 18      -0.003737884716
 19       0.002162988663
 20      -0.003213102954
 21       0.000000000000
 22      -0.025515439030
 23       0.083594060072
 24      -0.048373082092
 25       0.071857839883
 26       0.004151786121
 27       0.001606682509
 28       0.000490408165
 29       0.004446327414
 30       0.002993167640
 31      -0.004101340342
 32      -0.005050538605
 33      -0.000000000031
 34       0.222008336314
 35       0.067763668439
 36       0.234206295086
 37       0.000000000004
 38      -0.000000000002
 39       0.000000000001
 40      -0.136791776938
 41      -0.041752993477
 42      -0.144307622889
 Sym=     1a
 Ene= 3.48593489191166E+00
 Spin= Alpha
 Occup= 0.000000
  1       0.000000000006
  2       0.000000000004
  3       0.000000000023
  4      -0.000000000154
  5      -0.000000000220
  6      -0.000000000125
  7      -0.838212839783
  8      -0.255847946451
  9       0.868582261535