[Molden Format]
[Title]
 Molden file created by orca_2mkl for BaseName=/home/nikolayandreadi_2125/_scratch/CC/UF4

[Atoms] AU
U    1  92         -0.0059753140        -0.0090687957         0.0169810790 
F    2   9         -1.3154364721        -1.8608152138         3.2177066081 
F    3   9         -1.2714852217        -1.7970653027        -3.1724363288 
F    4   9         -1.2698052551         3.6477685919        -0.0311086716 
F    5   9          3.8627003732         0.0191826100        -0.0311426867 
[GTO]
  1 0
s   9 1.0 
 58915269.2040619999     15878.5363952950
 26779667.8200279996     -5784.7557541551
 12172576.2818310000      9027.3946318877
  5532989.2190140001       325.6868040056
  2514995.0995519999      4208.1243710139
  1143179.5907050001      1939.1491289669
   519627.0866840000      2669.4311026285
   236194.1303110000      2005.5172738201
   107360.9683230000      2058.9530636601
s   1 1.0 
    48800.4401470000      2340.0648682401
s   1 1.0 
    22182.0182490000      1295.4208592531
s   1 1.0 
    10082.7355680000       717.1233692609
s   1 1.0 
     4583.0616220000       396.9875296292
s   1 1.0 
     2083.2098280000       219.7656713216
s   1 1.0 
      946.9135580000       121.6586080998
s   1 1.0 
      430.4152540000        67.3481752053
s   1 1.0 
      195.6432970000        37.2828258248
s   1 1.0 
       88.9287710000        20.6391501245
s   1 1.0 
       40.4221690000        11.4254891526
s   1 1.0 
       18.3737130000         6.3249600754
s   1 1.0 
        8.3516880000         3.5013924304
s   1 1.0 
        3.7962220000         1.9383124866
s   1 1.0 
        1.7255550000         1.0730172334
s   1 1.0 
        0.7843430000         0.5940043302
s   1 1.0 
        0.3565200000         0.3288311987
s   1 1.0 
        0.1620540000         0.1820350044
s   1 1.0 
        0.0736610000         0.1007716339
s   1 1.0 
        0.0334820000         0.0557851540
s   1 1.0 
        0.0152190000         0.0308815919
p   8 1.0 
   839813.6669700000    124700.6825327761
   349922.3612380000     10799.0830937165
   145800.9838490000     36359.2991195727
    60750.4099370000     18163.2607860982
    25312.6708070000     17573.6487977577
    10546.9461700000     14195.6918408552
     4394.5609040000     13322.9302572221
     1831.0670430000     12107.7084625556
p   1 1.0 
      762.9446010000      5715.5278197986
p   1 1.0 
      317.8935840000      1913.3406184205
p   1 1.0 
      132.4556600000       640.5134283167
p   1 1.0 
       55.1898580000       214.4194529751
p   1 1.0 
       22.9957740000        71.7794502225
p   1 1.0 
        9.5815730000        24.0290224861
p   1 1.0 
        3.9923220000         8.0439996005
p   1 1.0 
        1.6634670000         2.6928231053
p   1 1.0 
        0.6931110000         0.9014540144
p   1 1.0 
        0.2887960000         0.3017720791
p   1 1.0 
        0.1203320000         0.1010221266
p   1 1.0 
        0.0501380000         0.0338180721
d   7 1.0 
    41049.8202270000     53262.0337640016
    16419.9280910000     26338.4031025142
     6567.9712360000     29332.4246479962
     2627.1884950000     27101.6066256769
     1050.8753980000     28990.3214062957
      420.3501590000     26289.6282344813
      168.1400640000     17820.8132210096
d   1 1.0 
       67.2560250000      4502.9764563892
d   1 1.0 
       26.9024100000       905.9509006942
d   1 1.0 
       10.7609640000       182.2676717095
d   1 1.0 
        4.3043860000        36.6703201328
d   1 1.0 
        1.7217540000         7.3776748265
d   1 1.0 
        0.6887020000         1.4843111023
d   1 1.0 
        0.2754810000         0.2986279634
d   1 1.0 
        0.1101920000         0.0600803838
d   1 1.0 
        0.0440770000         0.0120876293
f   6 1.0 
     4391.9602590000     58042.2322349557
     1689.2154840000     50234.6786083959
      649.6982630000     55932.1636963999
      249.8839470000     54589.9728655915
       96.1092110000     39385.8448814677
       36.9650810000     15829.5183325708
f   1 1.0 
       14.2173390000      2237.9031973610
f   1 1.0 
        5.4682070000       260.7061095750
f   1 1.0 
        2.1031570000        30.3711607432
f   1 1.0 
        0.8089060000         3.5381049160
f   1 1.0 
        0.3111180000         0.4121749941
f   1 1.0 
        0.1196610000         0.0480168308

  2 0
s   6 1.0 
    35479.1004410000         1.9229128581
     5318.4728983000         2.2734773358
     1210.4810975000         3.4747482552
      342.8551814000         5.2879612972
      112.0194318100         7.1666332516
       40.7147402500         7.7556346254
s   1 1.0 
       16.0396781100         5.7122450312
s   1 1.0 
        6.5038186700         2.9025947842
s   1 1.0 
        1.5440477500         0.9872011154
s   1 1.0 
        0.6122345300        -0.4932856223
s   1 1.0 
        0.2402798000         0.2445952611
p   4 1.0 
       80.2339004800         4.2755032106
       18.5940107400         4.7314752302
        5.6867902700         4.0864798013
        1.9511006300         2.2989954518
p   1 1.0 
        0.6697021100         0.8635593126
p   1 1.0 
        0.2165130000         0.2105208234
d   1 1.0 
        3.1070000000        20.7284714039
d   1 1.0 
        0.8550000000         2.1672588463
f   1 1.0 
        1.9170000000        24.6547062912

  3 0
s   6 1.0 
    35479.1004410000         1.9229128581
     5318.4728983000         2.2734773358
     1210.4810975000         3.4747482552
      342.8551814000         5.2879612972
      112.0194318100         7.1666332516
       40.7147402500         7.7556346254
s   1 1.0 
       16.0396781100         5.7122450312
s   1 1.0 
        6.5038186700         2.9025947842
s   1 1.0 
        1.5440477500         0.9872011154
s   1 1.0 
        0.6122345300        -0.4932856223
s   1 1.0 
        0.2402798000         0.2445952611
p   4 1.0 
       80.2339004800         4.2755032106
       18.5940107400         4.7314752302
        5.6867902700         4.0864798013
        1.9511006300         2.2989954518
p   1 1.0 
        0.6697021100         0.8635593126
p   1 1.0 
        0.2165130000         0.2105208234
d   1 1.0 
        3.1070000000        20.7284714039
d   1 1.0 
        0.8550000000         2.1672588463
f   1 1.0 
        1.9170000000        24.6547062912

  4 0
s   6 1.0 
    35479.1004410000         1.9229128581
     5318.4728983000         2.2734773358
     1210.4810975000         3.4747482552
      342.8551814000         5.2879612972
      112.0194318100         7.1666332516
       40.7147402500         7.7556346254
s   1 1.0 
       16.0396781100         5.7122450312
s   1 1.0 
        6.5038186700         2.9025947842
s   1 1.0 
        1.5440477500         0.9872011154
s   1 1.0 
        0.6122345300        -0.4932856223
s   1 1.0 
        0.2402798000         0.2445952611
p   4 1.0 
       80.2339004800         4.2755032106
       18.5940107400         4.7314752302
        5.6867902700         4.0864798013
        1.9511006300         2.2989954518
p   1 1.0 
        0.6697021100         0.8635593126
p   1 1.0 
        0.2165130000         0.2105208234
d   1 1.0 
        3.1070000000        20.7284714039
d   1 1.0 
        0.8550000000         2.1672588463
f   1 1.0 
        1.9170000000        24.6547062912

  5 0
s   6 1.0 
    35479.1004410000         1.9229128581
     5318.4728983000         2.2734773358
     1210.4810975000         3.4747482552
      342.8551814000         5.2879612972
      112.0194318100         7.1666332516
       40.7147402500         7.7556346254
s   1 1.0 
       16.0396781100         5.7122450312
s   1 1.0 
        6.5038186700         2.9025947842
s   1 1.0 
        1.5440477500         0.9872011154
s   1 1.0 
        0.6122345300        -0.4932856223
s   1 1.0 
        0.2402798000         0.2445952611
p   4 1.0 
       80.2339004800         4.2755032106
       18.5940107400         4.7314752302
        5.6867902700         4.0864798013
        1.9511006300         2.2989954518
p   1 1.0 
        0.6697021100         0.8635593126
p   1 1.0 
        0.2165130000         0.2105208234
d   1 1.0 
        3.1070000000        20.7284714039
d   1 1.0 
        0.8550000000         2.1672588463
f   1 1.0 
        1.9170000000        24.6547062912

[5D]
[9G]
[MO]
 Sym=     1a
 Ene= -4.26051927856488E+03
 Spin= Alpha
 Occup= 1.000000
  1       0.084983984123
  2       0.065169476614
  3       0.111711697787
  4       0.177550175508
  5       0.264431366750
  6       0.303181782627
  7       0.192924220961
  8       0.032220512805
  9       0.000869121688
 10      -0.000612222115
 11       0.000447362258
 12      -0.000332120613
 13       0.000236629235
 14      -0.000159856913
 15       0.000106690318
 16      -0.000071391455
 17       0.000047158421
 18      -0.000028953335
 19       0.000014419757
 20      -0.000006276914
 21       0.000001690560
 22      -0.000000004085
 23      -0.000000005887
 24       0.000000010501
 25       0.000000001067
 26       0.000000001487
 27      -0.000000002628
 28       0.000000001748
 29       0.000000002444
 30      -0.000000004260
 31      -0.000000000733
 32      -0.000000001025
 33       0.000000001784
 34       0.000000001337
 35       0.000000001867
 36      -0.000000003254
 37      -0.000000001586
 38      -0.000000002220
 39       0.000000003883
 40       0.000000003237
 41       0.000000004528
 42      -0.000000007915
 43      -0.000000005954
 44      -0.000000008333
 45       0.000000014576
 46       0.000000010869
 47       0.000000015215
 48      -0.000000026631
 49      -0.000000019428
 50      -0.000000027194
 51       0.000000047620
 52       0.000000027259
 53       0.000000038160
 54      -0.000000066807
 55      -0.000000038032
 56      -0.000000053209
 57       0.000000092889
 58       0.000000006793
 59       0.000000009639
 60      -0.000000017015
 61       0.000000005634
 62      -0.000000005606
 63      -0.000000007581
 64      -0.000000001265
 65       0.000000003097
 66      -0.000000004667
 67       0.000000004650
 68       0.000000006297
 69       0.000000001043
 70      -0.000000002578
 71       0.000000003228
 72      -0.000000003247
 73      -0.000000004423
 74      -0.000000000724
 75       0.000000001826
 76      -0.000000002039
 77       0.000000002073
 78       0.000000002839
 79       0.000000000454
 80      -0.000000001186
 81       0.000000001586
 82      -0.000000001641
 83      -0.000000002285
 84      -0.000000000345
 85       0.000000000976
 86      -0.000000002781
 87       0.000000002822
 88       0.000000003996
 89       0.000000000579
 90      -0.000000001695
 91       0.000000008386
 92      -0.000000008193
 93      -0.000000011613
 94      -0.000000001700
 95       0.000000004792
 96      -0.000000015904
 97       0.000000015278
 98       0.000000021623
 99       0.000000003205
100      -0.000000008792
101       0.000000025554
102      -0.000000023322
103      -0.000000032817
104      -0.000000005190
105       0.000000013082
106      -0.000000004127
107       0.000000003637
108       0.000000005073
109       0.000000000793
110      -0.000000001910
111       0.000000000095
112      -0.000000007147
113      -0.000000010107
114      -0.000000000130
115       0.000000000360
116      -0.000000008900
117       0.000000002516
118      -0.000000000067
119       0.000000020574
120       0.000000029082
121       0.000000000105
122      -0.000000000275
123       0.000000026321
124      -0.000000007439
125       0.000000000094
126      -0.000000039650
127      -0.000000056046
128      -0.000000000154
129       0.000000000397
130      -0.000000050854
131       0.000000014371
132      -0.000000000265
133       0.000000070883
134       0.000000100199
135       0.000000000404
136      -0.000000001072
137       0.000000090581
138      -0.000000025600
139       0.000000001131
140      -0.000000118939
141      -0.000000168154
142      -0.000000001578
143       0.000000004349
144      -0.000000149623
145       0.000000042292
146      -0.000000003345
147       0.000000154980
148       0.000000219173
149       0.000000004503
150      -0.000000012599
151       0.000000188532
152      -0.000000053308
153       0.000000003307
154       0.000000056014
155       0.000000078943
156      -0.000000004279
157       0.000000012188
158       0.000000083892
159      -0.000000023645
160      -0.000000010473
161       0.000000045509
162      -0.000000076815
163       0.000000093331
164      -0.000000033314
165       0.000000203281
166       0.000000013257
167       0.000000018754
168      -0.000000032427
169       0.000000030011
170       0.000000042414
171      -0.000000073273
172       0.000000075769
173       0.000000107226
174      -0.000000185436
175       0.000000035170
176      -0.000000033285
177      -0.000000047073
178      -0.000000006800
179       0.000000019240
180      -0.000000068414
181       0.000000064749
182       0.000000091572
183       0.000000013223
184      -0.000000037415
185       0.000000014121
186      -0.000000050889
187      -0.000000071966
188      -0.000000018532
189       0.000000052421
190      -0.000000016458
191       0.000000004656
192      -0.000000013178
193       0.000000057846
194      -0.000000100041
195       0.000000153717
196       0.000000048017
197       0.000000311488
198       0.000000018039
199       0.000000025496
200       0.000000046235
201       0.000000013953
202       0.000000019678
203       0.000000032594
204       0.000000086522
205       0.000000122347
206       0.000000225806
207       0.000000042060
208       0.000000037324
209       0.000000052740
210      -0.000000007425
211       0.000000021071
212      -0.000000094369
213      -0.000000083597
214      -0.000000118129
215       0.000000016642
216      -0.000000047226
217      -0.000000019499
218      -0.000000057061
219      -0.000000080627
220       0.000000019972
221      -0.000000056647
222      -0.000000017333
223       0.000000004926
224      -0.000000013170
225       0.000000057810
226      -0.000000099973
227       0.000000153547
228       0.000000047903
229       0.000000311743
230       0.000000017996
231      -0.000000052725
232       0.000000001055
233       0.000000013994
234      -0.000000038311
235      -0.000000000695
236       0.000000086443
237      -0.000000256787
238       0.000000007026
239      -0.000000039956
240       0.000000000419
241      -0.000000002022
242      -0.000000054810
243      -0.000000042793
244       0.000000089460
245      -0.000000000904
246       0.000000004641
247       0.000000122813
248       0.000000095820
249       0.000000002264
250       0.000000022590
251      -0.000000068831
252       0.000000002462
253       0.000000001603
254      -0.000000078970
255       0.000000050614
256      -0.000000013185
257       0.000000057877
258      -0.000000100100
259       0.000000153893
260       0.000000048450
261       0.000000312747
262      -0.000000055777
263      -0.000000000616
264       0.000000001058
265      -0.000000040570
266       0.000000000394
267      -0.000000000703
268      -0.000000271209
269      -0.000000004097
270       0.000000007048
271      -0.000000039974
272      -0.000000002048
273      -0.000000000277
274       0.000000069565
275       0.000000001197
276       0.000000089555
277       0.000000004683
278       0.000000000688
279      -0.000000155930
280      -0.000000002732
281       0.000000002267
282      -0.000000072458
283      -0.000000001660
284      -0.000000002928
285      -0.000000000301
286      -0.000000093828
287      -0.000000001812
 Sym=     1a
 Ene= -8.04466481594987E+02
 Spin= Alpha
 Occup= 1.000000
  1       0.035877210873
  2       0.029713968069
  3       0.049765053896
  4       0.086683434894
  5       0.138727458035
  6       0.177777920654
  7       0.072231611965
  8      -0.369147647640
  9      -0.610970846374
 10      -0.169938982815
 11       0.002088359122
 12      -0.001802414857
 13       0.000966497331
 14      -0.000500940158
 15       0.000280946448
 16      -0.000178335713
 17       0.000115377807
 18      -0.000069698843
 19       0.000034570555
 20      -0.000015027893
 21       0.000004043253
 22      -0.000000171568
 23      -0.000000238890
 24       0.000000415394
 25      -0.000000275018
 26      -0.000000382627
 27       0.000000664897
 28      -0.000000396744
 29      -0.000000551563
 30       0.000000958499
 31      -0.000000498461
 32      -0.000000693986
 33       0.000001205246
 34      -0.000000148294
 35      -0.000000206920
 36       0.000000359312
 37       0.000000023837
 38       0.000000033258
 39      -0.000000057571
 40      -0.000000009176
 41      -0.000000012848
 42       0.000000022212
 43      -0.000000006275
 44      -0.000000008780
 45       0.000000015511
 46       0.000000023283
 47       0.000000032627
 48      -0.000000057257
 49      -0.000000044333
 50      -0.000000062075
 51       0.000000108812
 52       0.000000063923
 53       0.000000089489
 54      -0.000000156737
 55      -0.000000088836
 56      -0.000000124310
 57       0.000000217116
 58       0.000000015913
 59       0.000000022591
 60      -0.000000039902
 61      -0.000000388469
 62       0.000000386694
 63       0.000000522122
 64       0.000000087185
 65      -0.000000214287
 66      -0.000000079199
 67       0.000000078016
 68       0.000000105877
 69       0.000000017353
 70      -0.000000042949
 71       0.000000060165
 72      -0.000000059587
 73      -0.000000081560
 74      -0.000000013168
 75       0.000000033262
 76      -0.000000024148
 77       0.000000023880
 78       0.000000032737
 79       0.000000005240
 80      -0.000000013324
 81       0.000000009446
 82      -0.000000009375
 83      -0.000000012899
 84      -0.000000002021
 85       0.000000005274
 86      -0.000000010769
 87       0.000000010774
 88       0.000000015056
 89       0.000000002282
 90      -0.000000006255
 91       0.000000022933
 92      -0.000000022375
 93      -0.000000031554
 94      -0.000000004686
 95       0.000000012965
 96      -0.000000039677
 97       0.000000038068
 98       0.000000053795
 99       0.000000008018
100      -0.000000021838
101       0.000000060484
102      -0.000000055218
103      -0.000000077659
104      -0.000000012293
105       0.000000030924
106      -0.000000009934
107       0.000000008772
108       0.000000012229
109       0.000000001911
110      -0.000000004601
111      -0.000000012082
112       0.000000063726
113       0.000000091045
114       0.000000015960
115      -0.000000045013
116       0.000000040970
117      -0.000000011796
118       0.000000006071
119       0.000000081208
120       0.000000114245
121      -0.000000007941
122       0.000000022498
123       0.000000125489
124      -0.000000035343
125      -0.000000003102
126      -0.000000147509
127      -0.000000208200
128       0.000000003978
129      -0.000000011377
130      -0.000000200936
131       0.000000056717
132       0.000000001329
133       0.000000175535
134       0.000000247971
135      -0.000000001614
136       0.000000004732
137       0.000000231090
138      -0.000000065273
139       0.000000001730
140      -0.000000265243
141      -0.000000374926
142      -0.000000002473
143       0.000000006745
144      -0.000000336377
145       0.000000095065
146      -0.000000007557
147       0.000000345029
148       0.000000487926
149       0.000000010163
150      -0.000000028446
151       0.000000419328
152      -0.000000118565
153       0.000000007569
154       0.000000145557
155       0.000000205210
156      -0.000000009778
157       0.000000027872
158       0.000000214415
159      -0.000000060448
160      -0.000000023277
161       0.000000108887
162      -0.000000187149
163       0.000000243503
164      -0.000000049801
165       0.000000487709
166       0.000000033134
167       0.000000046871
168      -0.000000081038
169       0.000000062030
170       0.000000087660
171      -0.000000151434
172       0.000000178684
173       0.000000252865
174      -0.000000437285
175       0.000000085632
176      -0.000000081044
177      -0.000000114613
178      -0.000000016557
179       0.000000046847
180      -0.000000173867
181       0.000000164552
182       0.000000232717
183       0.000000033608
184      -0.000000095095
185       0.000000034365
186      -0.000000123784
187      -0.000000175054
188      -0.000000045101
189       0.000000127579
190      -0.000000039973
191       0.000000011309
192      -0.000000028976
193       0.000000136229
194      -0.000000239953
195       0.000000385189
196       0.000000142206
197       0.000000739588
198       0.000000044381
199       0.000000062728
200       0.000000113695
201       0.000000023590
202       0.000000033246
203       0.000000053047
204       0.000000203701
205       0.000000288045
206       0.000000531955
207       0.000000101643
208       0.000000090213
209       0.000000127473
210      -0.000000017938
211       0.000000050903
212      -0.000000235912
213      -0.000000209057
214      -0.000000295413
215       0.000000041578
216      -0.000000117988
217      -0.000000047265
218      -0.000000138291
219      -0.000000195404
220       0.000000048405
221      -0.000000137292
222      -0.000000041897
223       0.000000011908
224      -0.000000028959
225       0.000000136148
226      -0.000000239796
227       0.000000384785
228       0.000000141918
229       0.000000740146
230       0.000000044276
231      -0.000000129678
232       0.000000002570
233       0.000000023702
234      -0.000000063138
235      -0.000000002171
236       0.000000203505
237      -0.000000604830
238       0.000000016717
239      -0.000000096581
240       0.000000001037
241      -0.000000004882
242      -0.000000132464
243      -0.000000103419
244       0.000000223751
245      -0.000000002366
246       0.000000011565
247       0.000000307069
248       0.000000239577
249       0.000000005507
250       0.000000054833
251      -0.000000166804
252       0.000000005953
253       0.000000003943
254      -0.000000191345
255       0.000000122686
256      -0.000000028990
257       0.000000136299
258      -0.000000240088
259       0.000000385604
260       0.000000143222
261       0.000000742498
262      -0.000000137183
263      -0.000000001500
264       0.000000002577
265      -0.000000066896
266       0.000000001240
267      -0.000000002190
268      -0.000000638754
269      -0.000000009746
270       0.000000016769
271      -0.000000096623
272      -0.000000004953
273      -0.000000000643
274       0.000000168119
275       0.000000002894
276       0.000000223979
277       0.000000011711
278       0.000000001608
279      -0.000000389852
280      -0.000000006833
281       0.000000005515
282      -0.000000175622
283      -0.000000003940
284      -0.000000007121
285      -0.000000000675
286      -0.000000227366
287      -0.000000004432
 Sym=     1a
 Ene= -6.75122957616563E+02
 Spin= Alpha
 Occup= 1.000000
  1       0.000000146407
  2       0.000000121764
  3       0.000000202437
  4       0.000000358043
  5       0.000000563091
  6       0.000000755672
  7       0.000000256791
  8      -0.000001677648
  9      -0.000003322965
 10       0.000001098328
 11      -0.000000167171
 12       0.000000633770
 13      -0.000001295033
 14       0.000002049509
 15      -0.000002781427
 16       0.000002458683
 17       0.000000688152
 18      -0.000002482517
 19      -0.000000065857
 20       0.000000118765
 21       0.000000001876
 22       0.060410903395
 23       0.084306241224
 24      -0.144836274660
 25       0.102836904373
 26       0.143513709877
 27      -0.246553408064
 28       0.154968294739
 29       0.216265502979
 30      -0.371539395244
 31       0.081509505352
 32       0.113750327524
 33      -0.195420570844
 34       0.002732769654
 35       0.003813707844
 36      -0.006551870719
 37       0.001487263891
 38       0.002075545629
 39      -0.003565735796
 40      -0.001031829354
 41      -0.001439965615
 42       0.002473819904
 43       0.000638889772
 44       0.000891599464
 45      -0.001531732353
 46      -0.000392774685
 47      -0.000548131159
 48       0.000941649012
 49       0.000246342511
 50       0.000343769735
 51      -0.000590543273
 52      -0.000152064880
 53      -0.000212203671
 54       0.000364522292
 55       0.000085346761
 56       0.000119140840
 57      -0.000204678085
 58      -0.000017607559
 59      -0.000024580622
 60       0.000042212336
 61      -0.000000103124
 62       0.000000084883
 63       0.000000127698
 64       0.000000024115
 65      -0.000000051076
 66       0.000000898460
 67      -0.000000847410
 68      -0.000001191307
 69      -0.000000177452
 70       0.000000492637
 71      -0.000001242929
 72       0.000001159872
 73       0.000001640116
 74       0.000000248227
 75      -0.000000675159
 76       0.000001909750
 77      -0.000001783273
 78      -0.000002521135
 79      -0.000000381865
 80       0.000001037791
 81      -0.000003411287
 82       0.000003184591
 83       0.000004503069
 84       0.000000682583
 85      -0.000001853191
 86       0.000006862547
 87      -0.000006403298
 88      -0.000009055979
 89      -0.000001374233
 90       0.000003726573
 91      -0.000014620555
 92       0.000013637041
 93       0.000019285925
 94       0.000002931679
 95      -0.000007937730
 96       0.000024575744
 97      -0.000022917593
 98      -0.000032411273
 99      -0.000004933547
100       0.000013338875
101      -0.000035960656
102       0.000033587102
103       0.000047499529
104       0.000007188359
105      -0.000019528122
106       0.000004081152
107      -0.000003809191
108      -0.000005386044
109      -0.000000813921
110       0.000002218923
111      -0.000000205263
112       0.000000673617
113       0.000000944927
114       0.000000265760
115      -0.000000758203
116       0.000000150995
117      -0.000000042398
118       0.000000166562
119      -0.000000303298
120      -0.000000425296
121      -0.000000221612
122       0.000000629315
123       0.000000205390
124      -0.000000058447
125      -0.000000296800
126       0.000000359174
127       0.000000511962
128       0.000000392953
129      -0.000001113841
130      -0.000000591349
131       0.000000165702
132       0.000000657391
133      -0.000000727504
134      -0.000001046425
135      -0.000000865513
136       0.000002452851
137       0.000001382666
138      -0.000000385478
139      -0.000001701015
140       0.000001620999
141       0.000002345771
142       0.000002237019
143      -0.000006338649
144      -0.000003908981
145       0.000001089402
146       0.000003843007
147      -0.000003150619
148      -0.000004586657
149      -0.000005049067
150       0.000014306725
151       0.000009484153
152      -0.000002643202
153      -0.000005545102
154       0.000005456883
155       0.000007884026
156       0.000007266556
157      -0.000020583097
158      -0.000012435130
159       0.000003468000
160      -0.000001667680
161       0.000007891702
162      -0.000014902365
163       0.000038595014
164       0.000063578833
165       0.000088539719
166       0.000002824919
167       0.000003993312
168      -0.000006901091
169      -0.000009819250
170      -0.000013874706
171       0.000023971711
172       0.000006315260
173       0.000008897862
174      -0.000015344300
175       0.000002913602
176      -0.000002750315
177      -0.000003892074
178      -0.000000564214
179       0.000001591301
180      -0.000011380521
181       0.000010750913
182       0.000015210096
183       0.000002203259
184      -0.000006220256
185       0.000000488204
186      -0.000001669287
187      -0.000002364895
188      -0.000000636686
189       0.000001793664
190      -0.000000467428
191       0.000000131370
192       0.000000540455
193      -0.000002566687
194       0.000004881663
195      -0.000013051871
196      -0.000021799998
197      -0.000028829774
198      -0.000000833469
199      -0.000001178597
200      -0.000002412558
201       0.000002709755
202       0.000003837217
203       0.000009523403
204       0.000000723667
205       0.000000995308
206      -0.000007492648
207      -0.000000388576
208      -0.000000993816
209      -0.000001401641
210       0.000000244462
211      -0.000000697611
212       0.000002483787
213       0.000003987275
214       0.000005626855
215      -0.000000912584
216       0.000002600082
217      -0.000000607840
218       0.000000362322
219       0.000000507456
220      -0.000000351799
221       0.000001005064
222       0.000000441729
223      -0.000000126309
224       0.000000548320
225      -0.000002604097
226       0.000004952996
227      -0.000013242610
228      -0.000022104601
229      -0.000029197439
230      -0.000000847533
231       0.000002722313
232      -0.000000185125
233       0.000002759439
234      -0.000010327461
235       0.000001435799
236       0.000000700737
237       0.000006078012
238      -0.000004587623
239       0.000000956321
240       0.000000104463
241      -0.000000514939
242       0.000001030952
243       0.000001224856
244      -0.000004001252
245      -0.000000249802
246       0.000001342047
247      -0.000004702611
248      -0.000004816568
249       0.000000516527
250      -0.000000348914
251       0.000000536722
252       0.000000465013
253       0.000000486114
254       0.000001002315
255      -0.000000061131
256       0.000000558060
257      -0.000002650379
258       0.000005041140
259      -0.000013479796
260      -0.000022500022
261      -0.000029712040
262       0.000002899760
263       0.000000108325
264      -0.000000185263
265      -0.000010849587
266      -0.000000837220
267       0.000001436572
268       0.000005579177
269       0.000002666912
270      -0.000004586278
271       0.000000972405
272      -0.000000520029
273      -0.000000073518
274      -0.000001599995
275       0.000000301305
276      -0.000004070941
277       0.000001347187
278       0.000000212770
279       0.000006806990
280      -0.000000779937
281       0.000000516514
282       0.000000633643
283      -0.000000149182
284      -0.000000667160
285       0.000000085695
286       0.000000899656
287      -0.000000467890
 Sym=     1a