[Molden Format]
[Title]
 Molden file created by orca_2mkl for BaseName=/home/nikolayandreadi/cctask/ThF4

[Atoms] AU
Th   1  90         -0.8991524815         1.1942048714       -22.5120220848 
F    2   9          0.0289184790         4.3129238452       -20.1695478048 
F    3   9          2.1683133400         0.4189163791       -24.9755087572 
F    4   9         -1.6014824273        -2.0076261474       -20.2025235258 
F    5   9         -4.1859720435         2.0585561565       -24.6404074013 
[GTO]
  1 0
s   9 1.0 
 56363088.8897159994     14778.1042965716
 25619585.8589619994     -5353.8940985092
 11645266.2995280009      8426.6246843710
  5293302.8634219998       355.2974589112
  2406046.7561010001      3966.2398531229
  1093657.6164090000      1871.6925969518
   497117.0983680000      2554.3549383654
   225962.3174400000      1947.5823690279
   102710.1442910000      2003.9339351483
s   1 1.0 
    46686.4292230000      2263.6177257250
s   1 1.0 
    21221.1041920000      1253.1009969054
s   1 1.0 
     9645.9564510000       693.6957997042
s   1 1.0 
     4384.5256600000       384.0184181081
s   1 1.0 
     1992.9662090000       212.5861876238
s   1 1.0 
      905.8937310000       117.6841657205
s   1 1.0 
      411.7698780000        65.1479902207
s   1 1.0 
      187.1681260000        36.0648401212
s   1 1.0 
       85.0764210000        19.9648936444
s   1 1.0 
       38.6711000000        11.0522318430
s   1 1.0 
       17.5777730000         6.1183311760
s   1 1.0 
        7.9898970000         3.3870060920
s   1 1.0 
        3.6317710000         1.8749899082
s   1 1.0 
        1.6508050000         1.0379631227
s   1 1.0 
        0.7503660000         0.5745991150
s   1 1.0 
        0.3410750000         0.3180881630
s   1 1.0 
        0.1550340000         0.1760882213
s   1 1.0 
        0.0704700000         0.0974795007
s   1 1.0 
        0.0320320000         0.0539632545
s   1 1.0 
        0.0145600000         0.0298731571
p   8 1.0 
   801557.4232150000    111526.6618928219
   333982.2596730000      9806.7644992234
   139159.2748640000     32786.6140208934
    57983.0311930000     16563.0181260814
    24159.5963310000     16114.3065299024
    10066.4984710000     13167.2436378249
     4194.3743630000     12484.9755041257
     1747.6559850000     11474.1273212331
p   1 1.0 
      728.1899940000      5391.9514325668
p   1 1.0 
      303.4124970000      1805.0195856541
p   1 1.0 
      126.4218740000       604.2516814379
p   1 1.0 
       52.6757810000       202.2804062426
p   1 1.0 
       21.9482420000        67.7157609165
p   1 1.0 
        9.1451010000        22.6686533209
p   1 1.0 
        3.8104590000         7.5886007462
p   1 1.0 
        1.5876910000         2.5403734581
p   1 1.0 
        0.6615380000         0.8504202302
p   1 1.0 
        0.2756410000         0.2846884572
p   1 1.0 
        0.1148500000         0.0953023999
p   1 1.0 
        0.0478540000         0.0319034680
d   7 1.0 
    38933.2915440000     46572.0662416863
    15573.3166180000     23269.4286059199
     6229.3266470000     26121.7698594031
     2491.7306590000     24387.7829800367
      996.6922640000     26291.1761786242
      398.6769050000     23958.5994014499
      159.4707620000     16247.8933905941
d   1 1.0 
       63.7883050000      4104.5631541937
d   1 1.0 
       25.5153220000       825.7943878925
d   1 1.0 
       10.2061290000       166.1410407984
d   1 1.0 
        4.0824520000        33.4258135301
d   1 1.0 
        1.6329810000         6.7249190969
d   1 1.0 
        0.6531920000         1.3529806436
d   1 1.0 
        0.2612770000         0.2722056592
d   1 1.0 
        0.1045110000         0.0547650627
d   1 1.0 
        0.0418040000         0.0110179628
f   6 1.0 
     4035.8413290000     49260.8367384417
     1552.2466650000     42474.1211389361
      597.0179480000     48000.3842431296
      229.6222880000     46516.5742749474
       88.3162650000     33125.9538993660
       33.9677940000     13028.7856284556
f   1 1.0 
       13.0645360000      1850.1696671323
f   1 1.0 
        5.0248220000       215.5368906459
f   1 1.0 
        1.9326240000        25.1091295974
f   1 1.0 
        0.7433170000         2.9251067932
f   1 1.0 
        0.2858910000         0.3407620072
f   1 1.0 
        0.1099580000         0.0396972526

  2 0
s   6 1.0 
    35479.1004410000         1.9229128581
     5318.4728983000         2.2734773358
     1210.4810975000         3.4747482552
      342.8551814000         5.2879612972
      112.0194318100         7.1666332516
       40.7147402500         7.7556346254
s   1 1.0 
       16.0396781100         5.7122450312
s   1 1.0 
        6.5038186700         2.9025947842
s   1 1.0 
        1.5440477500         0.9872011154
s   1 1.0 
        0.6122345300        -0.4932856223
s   1 1.0 
        0.2402798000         0.2445952611
p   4 1.0 
       80.2339004800         4.2755032106
       18.5940107400         4.7314752302
        5.6867902700         4.0864798013
        1.9511006300         2.2989954518
p   1 1.0 
        0.6697021100         0.8635593126
p   1 1.0 
        0.2165130000         0.2105208234
d   1 1.0 
        3.1070000000        20.7284714039
d   1 1.0 
        0.8550000000         2.1672588463
f   1 1.0 
        1.9170000000        24.6547062912

  3 0
s   6 1.0 
    35479.1004410000         1.9229128581
     5318.4728983000         2.2734773358
     1210.4810975000         3.4747482552
      342.8551814000         5.2879612972
      112.0194318100         7.1666332516
       40.7147402500         7.7556346254
s   1 1.0 
       16.0396781100         5.7122450312
s   1 1.0 
        6.5038186700         2.9025947842
s   1 1.0 
        1.5440477500         0.9872011154
s   1 1.0 
        0.6122345300        -0.4932856223
s   1 1.0 
        0.2402798000         0.2445952611
p   4 1.0 
       80.2339004800         4.2755032106
       18.5940107400         4.7314752302
        5.6867902700         4.0864798013
        1.9511006300         2.2989954518
p   1 1.0 
        0.6697021100         0.8635593126
p   1 1.0 
        0.2165130000         0.2105208234
d   1 1.0 
        3.1070000000        20.7284714039
d   1 1.0 
        0.8550000000         2.1672588463
f   1 1.0 
        1.9170000000        24.6547062912

  4 0
s   6 1.0 
    35479.1004410000         1.9229128581
     5318.4728983000         2.2734773358
     1210.4810975000         3.4747482552
      342.8551814000         5.2879612972
      112.0194318100         7.1666332516
       40.7147402500         7.7556346254
s   1 1.0 
       16.0396781100         5.7122450312
s   1 1.0 
        6.5038186700         2.9025947842
s   1 1.0 
        1.5440477500         0.9872011154
s   1 1.0 
        0.6122345300        -0.4932856223
s   1 1.0 
        0.2402798000         0.2445952611
p   4 1.0 
       80.2339004800         4.2755032106
       18.5940107400         4.7314752302
        5.6867902700         4.0864798013
        1.9511006300         2.2989954518
p   1 1.0 
        0.6697021100         0.8635593126
p   1 1.0 
        0.2165130000         0.2105208234
d   1 1.0 
        3.1070000000        20.7284714039
d   1 1.0 
        0.8550000000         2.1672588463
f   1 1.0 
        1.9170000000        24.6547062912

  5 0
s   6 1.0 
    35479.1004410000         1.9229128581
     5318.4728983000         2.2734773358
     1210.4810975000         3.4747482552
      342.8551814000         5.2879612972
      112.0194318100         7.1666332516
       40.7147402500         7.7556346254
s   1 1.0 
       16.0396781100         5.7122450312
s   1 1.0 
        6.5038186700         2.9025947842
s   1 1.0 
        1.5440477500         0.9872011154
s   1 1.0 
        0.6122345300        -0.4932856223
s   1 1.0 
        0.2402798000         0.2445952611
p   4 1.0 
       80.2339004800         4.2755032106
       18.5940107400         4.7314752302
        5.6867902700         4.0864798013
        1.9511006300         2.2989954518
p   1 1.0 
        0.6697021100         0.8635593126
p   1 1.0 
        0.2165130000         0.2105208234
d   1 1.0 
        3.1070000000        20.7284714039
d   1 1.0 
        0.8550000000         2.1672588463
f   1 1.0 
        1.9170000000        24.6547062912

[5D]
[9G]
[MO]
 Sym=     1a
 Ene= -4.04114253358900E+03
 Spin= Alpha
 Occup= 2.000000
  1      -0.080559736726
  2      -0.062916819293
  3      -0.108723557752
  4      -0.175081401990
  5      -0.263883322717
  6      -0.306747630257
  7      -0.197324550359
  8      -0.033452805001
  9      -0.000825566188
 10       0.000570295813
 11      -0.000419309548
 12       0.000314828412
 13      -0.000225304548
 14       0.000152120786
 15      -0.000101492174
 16       0.000068005099
 17      -0.000045213050
 18       0.000028156735
 19      -0.000014254454
 20       0.000006108786
 21      -0.000001639156
 22       0.000000000342
 23       0.000000000330
 24       0.000000003036
 25      -0.000000000030
 26      -0.000000000035
 27      -0.000000000196
 28      -0.000000000027
 29      -0.000000000031
 30      -0.000000000187
 31       0.000000000010
 32       0.000000000012
 33       0.000000000052
 34      -0.000000000015
 35      -0.000000000020
 36      -0.000000000063
 37       0.000000000030
 38       0.000000000039
 39       0.000000000138
 40      -0.000000000055
 41      -0.000000000070
 42      -0.000000000275
 43       0.000000000110
 44       0.000000000135
 45       0.000000000606
 46      -0.000000000211
 47      -0.000000000255
 48      -0.000000001205
 49       0.000000000374
 50       0.000000000447
 51       0.000000002207
 52      -0.000000000517
 53      -0.000000000610
 54      -0.000000003123
 55       0.000000000652
 56       0.000000000788
 57       0.000000003606
 58      -0.000000000304
 59      -0.000000000314
 60      -0.000000002459
 61      -0.000000000005
 62      -0.000000000005
 63      -0.000000000011
 64       0.000000000076
 65      -0.000000000045
 66      -0.000000000008
 67      -0.000000000006
 68      -0.000000000014
 69       0.000000000076
 70      -0.000000000047
 71       0.000000000034
 72       0.000000000025
 73       0.000000000049
 74      -0.000000000340
 75       0.000000000208
 76      -0.000000000044
 77      -0.000000000035
 78      -0.000000000070
 79       0.000000000482
 80      -0.000000000294
 81       0.000000000073
 82       0.000000000060
 83       0.000000000123
 84      -0.000000000830
 85       0.000000000504
 86      -0.000000000132
 87      -0.000000000112
 88      -0.000000000239
 89       0.000000001549
 90      -0.000000000938
 91       0.000000000209
 92       0.000000000194
 93       0.000000000462
 94      -0.000000002723
 95       0.000000001637
 96      -0.000000000241
 97      -0.000000000240
 98      -0.000000000627
 99       0.000000003415
100      -0.000000002037
101      -0.000000000310
102      -0.000000000359
103      -0.000000000368
104       0.000000004832
105      -0.000000002872
106       0.000000000181
107       0.000000000125
108       0.000000000169
109      -0.000000001638
110       0.000000001012
111      -0.000000000014
112      -0.000000001341
113       0.000000000205
114       0.000000014485
115      -0.000000008006
116      -0.000000000673
117       0.000000000804
118       0.000000000041
119       0.000000003769
120      -0.000000000576
121      -0.000000040707
122       0.000000022499
123       0.000000001892
124      -0.000000002261
125      -0.000000000085
126      -0.000000007556
127       0.000000001155
128       0.000000081598
129      -0.000000045100
130      -0.000000003792
131       0.000000004533
132       0.000000000178
133       0.000000014166
134      -0.000000002169
135      -0.000000152982
136       0.000000084555
137       0.000000007107
138      -0.000000008503
139      -0.000000000461
140      -0.000000026084
141       0.000000004020
142       0.000000281640
143      -0.000000155661
144      -0.000000013070
145       0.000000015679
146       0.000000001123
147       0.000000041765
148      -0.000000006498
149      -0.000000450735
150       0.000000249109
151       0.000000020882
152      -0.000000025153
153       0.000000001285
154      -0.000000003461
155       0.000000000449
156       0.000000038920
157      -0.000000021522
158      -0.000000001848
159       0.000000002116
160       0.000000007876
161      -0.000000033923
162       0.000000055865
163      -0.000000048764
164       0.000000082612
165      -0.000000161546
166       0.000000007412
167       0.000000024926
168       0.000000018618
169       0.000000022178
170       0.000000074465
171       0.000000056299
172       0.000000060068
173       0.000000202011
174       0.000000150849
175      -0.000000000690
176      -0.000000014413
177      -0.000000048455
178       0.000000029355
179      -0.000000019174
180       0.000000001182
181       0.000000025882
182       0.000000087034
183      -0.000000052709
184       0.000000034431
185       0.000000035043
186      -0.000000009356
187      -0.000000031119
188       0.000000058831
189      -0.000000038306
190      -0.000000029885
191      -0.000000025227
192       0.000000007837
193      -0.000000033750
194       0.000000055554
195      -0.000000048185
196       0.000000081747
197      -0.000000167798
198       0.000000023956
199      -0.000000006064
200      -0.000000019374
201       0.000000075036
202      -0.000000018932
203      -0.000000059792
204       0.000000199001
205      -0.000000050374
206      -0.000000160858
207      -0.000000004119
208       0.000000049756
209      -0.000000012567
210      -0.000000029048
211       0.000000015693
212       0.000000007437
213      -0.000000088788
214       0.000000022421
215       0.000000051849
216      -0.000000028021
217      -0.000000031488
218      -0.000000038533
219       0.000000009722
220       0.000000061237
221      -0.000000033082
222       0.000000026386
223      -0.000000024224
224       0.000000007851
225      -0.000000033810
226       0.000000055658
227      -0.000000048292
228       0.000000082933
229      -0.000000161954
230      -0.000000005590
231      -0.000000025428
232       0.000000018224
233      -0.000000016828
234      -0.000000076906
235       0.000000055889
236      -0.000000045584
237      -0.000000207403
238       0.000000148613
239       0.000000000209
240       0.000000010738
241       0.000000048930
242       0.000000032230
243      -0.000000014855
244      -0.000000000445
245      -0.000000019248
246      -0.000000087674
247      -0.000000057728
248       0.000000026611
249       0.000000035797
250       0.000000006429
251       0.000000029745
252       0.000000063647
253      -0.000000029439
254       0.000000024038
255       0.000000031884
256       0.000000007830
257      -0.000000033717
258       0.000000055495
259      -0.000000048048
260       0.000000081865
261      -0.000000167807
262      -0.000000025646
263       0.000000006729
264      -0.000000016725
265      -0.000000080450
266       0.000000021210
267      -0.000000051686
268      -0.000000213363
269       0.000000055995
270      -0.000000139075
271       0.000000004657
272      -0.000000046035
273       0.000000012118
274      -0.000000033141
275       0.000000018712
276      -0.000000008222
277       0.000000082106
278      -0.000000021619
279       0.000000059127
280      -0.000000033367
281      -0.000000038928
282       0.000000018902
283      -0.000000004991
284       0.000000060396
285      -0.000000034111
286      -0.000000031933
287       0.000000031043
 Sym=     1a
 Ene= -7.56805905691406E+02
 Spin= Alpha
 Occup= 2.000000
  1      -0.033641533826
  2      -0.028344820583
  3      -0.047943517686
  4      -0.084514818685
  5      -0.137371648388
  6      -0.180016067037
  7      -0.081946558313
  8       0.357634340471
  9       0.618095982899
 10       0.179418634713
 11      -0.002315460746
 12       0.002242309533
 13      -0.001268786679
 14       0.000697568519
 15      -0.000411915269
 16       0.000266631797
 17      -0.000174753725
 18       0.000107683591
 19      -0.000054403008
 20       0.000023297684
 21      -0.000006247270
 22       0.000000000712
 23       0.000000000925
 24       0.000000003733
 25       0.000000000674
 26       0.000000001036
 27       0.000000001788
 28       0.000000000605
 29       0.000000001278
 30      -0.000000002170
 31       0.000000000902
 32       0.000000001363
 33       0.000000002642
 34       0.000000000613
 35       0.000000000616
 36       0.000000005086
 37       0.000000000057
 38       0.000000000114
 39      -0.000000000094
 40      -0.000000000059
 41      -0.000000000128
 42       0.000000000277
 43       0.000000000360
 44       0.000000000462
 45       0.000000001825
 46      -0.000000000857
 47      -0.000000001032
 48      -0.000000005075
 49       0.000000001448
 50       0.000000001734
 51       0.000000008617
 52      -0.000000001976
 53      -0.000000002338
 54      -0.000000011935
 55       0.000000002536
 56       0.000000003043
 57       0.000000014152
 58      -0.000000001164
 59      -0.000000001197
 60      -0.000000009400
 61       0.000000000129
 62       0.000000000397
 63       0.000000000965
 64      -0.000000006040
 65       0.000000003423
 66       0.000000000261
 67       0.000000000094
 68       0.000000000035
 69      -0.000000001014
 70       0.000000000710
 71       0.000000000252
 72       0.000000000271
 73       0.000000000574
 74      -0.000000003870
 75       0.000000002294
 76      -0.000000000148
 77      -0.000000000171
 78      -0.000000000379
 79       0.000000002449
 80      -0.000000001447
 81       0.000000000199
 82       0.000000000198
 83       0.000000000428
 84      -0.000000002773
 85       0.000000001659
 86      -0.000000000471
 87      -0.000000000416
 88      -0.000000000892
 89       0.000000005762
 90      -0.000000003479
 91       0.000000000756
 92       0.000000000714
 93       0.000000001714
 94      -0.000000010026
 95       0.000000006019
 96      -0.000000000866
 97      -0.000000000874
 98      -0.000000002311
 99       0.000000012424
100      -0.000000007408
101      -0.000000001186
102      -0.000000001355
103      -0.000000001369
104       0.000000018192
105      -0.000000010824
106       0.000000000689
107       0.000000000473
108       0.000000000633
109      -0.000000006163
110       0.000000003813
111       0.000000000093
112       0.000000023747
113      -0.000000003605
114      -0.000000256584
115       0.000000141821
116       0.000000011937
117      -0.000000014231
118       0.000000000202
119       0.000000009310
120      -0.000000001435
121      -0.000000100465
122       0.000000055526
123       0.000000004662
124      -0.000000005592
125      -0.000000000404
126      -0.000000031150
127       0.000000004768
128       0.000000336362
129      -0.000000185911
130      -0.000000015627
131       0.000000018691
132       0.000000000670
133       0.000000051721
134      -0.000000007923
135      -0.000000558538
136       0.000000308708
137       0.000000025946
138      -0.000000031045
139      -0.000000001679
140      -0.000000094604
141       0.000000014581
142       0.000001021460
143      -0.000000564555
144      -0.000000047400
145       0.000000056866
146       0.000000004125
147       0.000000153701
148      -0.000000023919
149      -0.000001658782
150       0.000000916764
151       0.000000076845
152      -0.000000092570
153       0.000000004792
154      -0.000000011122
155       0.000000001409
156       0.000000125865
157      -0.000000069604
158      -0.000000005992
159       0.000000006826
160       0.000000027496
161      -0.000000127078
162       0.000000213549
163      -0.000000201539
164       0.000000292383
165      -0.000000604549
166       0.000000029140
167       0.000000097984
168       0.000000073215
169       0.000000078143
170       0.000000262371
171       0.000000198416
172       0.000000225649
173       0.000000758857
174       0.000000566713
175      -0.000000002668
176      -0.000000055479
177      -0.000000186516
178       0.000000112998
179      -0.000000073807
180       0.000000004756
181       0.000000103085
182       0.000000346631
183      -0.000000209937
184       0.000000137136
185       0.000000134614
186      -0.000000035935
187      -0.000000119556
188       0.000000225882
189      -0.000000147087
190      -0.000000114804
191      -0.000000096923
192       0.000000027364
193      -0.000000126471
194       0.000000212425
195      -0.000000199391
196       0.000000289221
197      -0.000000627612
198       0.000000094293
199      -0.000000023866
200      -0.000000076221
201       0.000000264703
202      -0.000000066783
203      -0.000000210869
204       0.000000747395
205      -0.000000189183
206      -0.000000604075
207      -0.000000015842
208       0.000000191585
209      -0.000000048390
210      -0.000000111845
211       0.000000060424
212       0.000000029573
213      -0.000000353962
214       0.000000089387
215       0.000000206689
216      -0.000000111694
217      -0.000000120990
218      -0.000000148023
219       0.000000037348
220       0.000000235146
221      -0.000000127031
222       0.000000101380
223      -0.000000093070
224       0.000000027411
225      -0.000000126677
226       0.000000212792
227      -0.000000199766
228       0.000000293631
229      -0.000000605977
230      -0.000000021976
231      -0.000000099988
232       0.000000071691
233      -0.000000059312
234      -0.000000271086
235       0.000000197060
236      -0.000000171220
237      -0.000000779063
238       0.000000558288
239       0.000000000789
240       0.000000041338
241       0.000000188361
242       0.000000124077
243      -0.000000057186
244      -0.000000001710
245      -0.000000076678
246      -0.000000349284
247      -0.000000229998
248       0.000000106019
249       0.000000137511
250       0.000000024712
251       0.000000114283
252       0.000000244393
253      -0.000000113026
254       0.000000092355
255       0.000000122487
256       0.000000027340
257      -0.000000126357
258       0.000000212209
259      -0.000000198875
260       0.000000289678
261      -0.000000627608
262      -0.000000100949
263       0.000000026491
264      -0.000000065801
265      -0.000000283825
266       0.000000074834
267      -0.000000182291
268      -0.000000801304
269       0.000000210305
270      -0.000000522256
271       0.000000017950
272      -0.000000177261
273       0.000000046661
274      -0.000000127610
275       0.000000072053
276      -0.000000032853
277       0.000000327340
278      -0.000000086187
279       0.000000235713
280      -0.000000133035
281      -0.000000149570
282       0.000000072621
283      -0.000000019174
284       0.000000231913
285      -0.000000130985
286      -0.000000122674
287       0.000000119261
 Sym=     1a
 Ene= -6.39241471489614E+02
 Spin= Alpha
 Occup= 2.000000
  1      -0.000000000172
  2      -0.000000000146
  3      -0.000000000220
  4      -0.000000000465
  5      -0.000000000504
  6      -0.000000001355
  7       0.000000000168
  8      -0.000000001224
  9       0.000000006861
 10      -0.000000001140
 11       0.000000006023
 12      -0.000000013537
 13       0.000000018109
 14      -0.000000024233
 15       0.000000024298
 16       0.000000010153
 17      -0.000000098618
 18       0.000000135656
 19      -0.000000071999
 20       0.000000045472
 21      -0.000000012381
 22      -0.041400564395
 23      -0.167795308476
 24      -0.025168396529
 25      -0.071447687345
 26      -0.289575442285
 27      -0.043434763597
 28      -0.108589686650
 29      -0.440110905864
 30      -0.066014275986
 31      -0.057660852785
 32      -0.233697792806
 33      -0.035053415938
 34      -0.002032126974
 35      -0.008236147850
 36      -0.001235377869
 37      -0.001041121535
 38      -0.004219642911
 39      -0.000632924044
 40       0.000724471892
 41       0.002936275435
 42       0.000440426023
 43      -0.000447990085
 44      -0.001815710275
 45      -0.000272347761
 46       0.000274973250
 47       0.001114491022
 48       0.000167170076
 49      -0.000171502675
 50      -0.000695143835
 51      -0.000104273600
 52       0.000104048965
 53       0.000421756923
 54       0.000063266196
 55      -0.000054014946
 56      -0.000218970749
 57      -0.000032832618
 58       0.000011856160
 59       0.000048074994
 60       0.000007207912
 61      -0.000000007711
 62      -0.000000264110
 63      -0.000000925393
 64       0.000000088397
 65      -0.000000105374
 66       0.000000009967
 67       0.000000350161
 68       0.000001227257
 69      -0.000000116732
 70       0.000000138919
 71      -0.000000020315
 72      -0.000000675294
 73      -0.000002368863
 74       0.000000225251
 75      -0.000000268619
 76       0.000000031909
 77       0.000001045640
 78       0.000003669820
 79      -0.000000348815
 80       0.000000416234
 81      -0.000000057845
 82      -0.000001882611
 83      -0.000006608501
 84       0.000000628101
 85      -0.000000749670
 86       0.000000116415
 87       0.000003780003
 88       0.000013268662
 89      -0.000001261511
 90       0.000001505511
 91      -0.000000244284
 92      -0.000007921641
 93      -0.000027805045
 94       0.000002645591
 95      -0.000003156074
 96       0.000000406349
 97       0.000013182777
 98       0.000046275525
 99      -0.000004406397
100       0.000005254281
101      -0.000000461888
102      -0.000015154744
103      -0.000053206391
104       0.000005053287
105      -0.000006031636
106       0.000000048357
107       0.000001551668
108       0.000005436138
109      -0.000000514583
110       0.000000615783
111       0.000000016634
112      -0.000000016370
113      -0.000000077180
114      -0.000000005236
115      -0.000000011787
116      -0.000000071843
117      -0.000000073364
118      -0.000000067704
119       0.000000068451
120       0.000000321659
121       0.000000024228
122       0.000000046881
123       0.000000286896
124       0.000000292949
125       0.000000156856
126      -0.000000159152
127      -0.000000747588
128      -0.000000057263
129      -0.000000108133
130      -0.000000662828
131      -0.000000676908
132      -0.000000361994
133       0.000000367366
134       0.000001725606
135       0.000000132446
136       0.000000249309
137       0.000001528227
138       0.000001560714
139       0.000001007816
140      -0.000001020951
141      -0.000004796327
142      -0.000000364881
143      -0.000000695111
144      -0.000004252370
145      -0.000004342042
146      -0.000002414416
147       0.000002440606
148       0.000011466154
149       0.000000864157
150       0.000001667280
151       0.000010179238
152       0.000010392916
153       0.000002930610
154      -0.000002960865
155      -0.000013921793
156      -0.000001083399
157      -0.000002009079
158      -0.000012400511
159      -0.000012666621
160      -0.000001319842
161       0.000006253325
162      -0.000011778869
163       0.000029779151
164       0.000045497802
165       0.000055302829
166      -0.000001673082
167      -0.000005650891
168      -0.000004142462
169       0.000005627595
170       0.000019152408
171       0.000013532341
172      -0.000001628865
173      -0.000006084638
174      -0.000002409468
175       0.000000272254
176       0.000001307499
177       0.000004342683
178      -0.000002455234
179       0.000001630495
180      -0.000000748521
181      -0.000004834512
182      -0.000016122203
183       0.000009332546
184      -0.000006161674
185      -0.000000912455
186       0.000000406590
187       0.000001344107
188      -0.000001747055
189       0.000001187962
190       0.000000857151
191       0.000000697345
192       0.000000139130
193      -0.000000659142
194       0.000001241399
195      -0.000003137247
196      -0.000004797609
197      -0.000005852625
198       0.000000527137
199      -0.000000306967
200      -0.000000479610
201      -0.000001487045
202       0.000001869346
203       0.000001681048
204      -0.000000622319
205      -0.000003659781
206      -0.000000742954
207       0.000000014642
208       0.000000544398
209       0.000000275944
210      -0.000000506158
211      -0.000000217633
212       0.000000012233
213      -0.000001933059
214      -0.000000549142
215       0.000001587215
216       0.000000343091
217      -0.000000158212
218      -0.000000074442
219      -0.000000110948
220       0.000000537750
221       0.000000511661
222       0.000000546348
223       0.000000369150
224       0.000001082478
225      -0.000005128499
226       0.000009659368
227      -0.000024413931
228      -0.000037309967
229      -0.000045415322
230      -0.000001053023
231      -0.000004779940
232       0.000003299890
233       0.000003619430
234       0.000016325423
235      -0.000010537275
236      -0.000001349089
237      -0.000005707689
238       0.000000977404
239      -0.000000297203
240       0.000000802009
241       0.000003678632
242       0.000002150046
243      -0.000000974811
244       0.000000711199
245      -0.000002963134
246      -0.000013556284
247      -0.000008251616
248       0.000003762197
249       0.000000653700
250       0.000000283764
251       0.000001332963
252       0.000001591154
253      -0.000000704970
254       0.000000501481
255       0.000000673049
256       0.000000096414
257      -0.000000456728
258       0.000000860040
259      -0.000002172934
260      -0.000003328954
261      -0.000004077623
262      -0.000000459256
263      -0.000000053004
264      -0.000000295429
265       0.000001700417
266       0.000001048682
267       0.000001085655
268      -0.000001074879
269      -0.000003540382
270      -0.000000654374
271       0.000000086895
272      -0.000000171750
273       0.000000412546
274      -0.000000015079
275       0.000000549076
276      -0.000000251719
277       0.000000792561
278      -0.000001133274
279       0.000000311509
280      -0.000001500394
281      -0.000000125319
282      -0.000000070892
283       0.000000000518
284      -0.000000188982
285      -0.000000618577
286       0.000000405229
287       0.000000617705
 Sym=     1a