[Molden Format]
[Title]
 Molden file created by orca_2mkl for BaseName=/data01/Nikolayandreadi/heavy/cations/Np_4+

[Atoms] AU
Np   1  93          0.0415890928         1.5388172189        -3.6027401976 
[GTO]
  1 0
s   9 1.0 
 60212393.7825810015     16460.1280594584
 27369269.9011729993     -6013.5086094560
 12440577.2278060000      9343.9211279925
  5654807.8308210000       308.3663916485
  2570367.1958280001      4334.3325603517
  1168348.7253759999      1972.8827387435
   531067.6024440000      2728.3967901233
   241394.3647470000      2034.2792369220
   109724.7112490000      2086.3436128711
s   1 1.0 
    49874.8687490000      2378.6000111367
s   1 1.0 
    22670.3948860000      1316.7532712607
s   1 1.0 
    10304.7249480000       728.9326365214
s   1 1.0 
     4683.9658860000       403.5249429308
s   1 1.0 
     2129.0754030000       223.3846742626
s   1 1.0 
      967.7615470000       123.6620277677
s   1 1.0 
      439.8916120000        68.4572348252
s   1 1.0 
      199.9507330000        37.8967827997
s   1 1.0 
       90.8866970000        20.9790265547
s   1 1.0 
       41.3121350000        11.6136389953
s   1 1.0 
       18.7782430000         6.4291166887
s   1 1.0 
        8.5355650000         3.5590517075
s   1 1.0 
        3.8798020000         1.9702315267
s   1 1.0 
        1.7635460000         1.0906871246
s   1 1.0 
        0.8016120000         0.6037862931
s   1 1.0 
        0.3643690000         0.3342459531
s   1 1.0 
        0.1656220000         0.1850327531
s   1 1.0 
        0.0752830000         0.1024313225
s   1 1.0 
        0.0342190000         0.0567035929
s   1 1.0 
        0.0155540000         0.0313900251
p   8 1.0 
   859302.8310040000    131775.7051530663
   358042.8462520000     11325.8407160590
   149184.5192720000     38266.0812549783
    62160.2163630000     19009.8155098714
    25900.0901510000     18342.5702252260
    10791.7042300000     14732.4699955005
     4496.5434290000     13756.3118120073
     1873.5597620000     12431.3284313481
p   1 1.0 
      780.6499010000      5881.8029941886
p   1 1.0 
      325.2707920000      1969.0031994381
p   1 1.0 
      135.5294970000       659.1471384521
p   1 1.0 
       56.4706240000       220.6573109288
p   1 1.0 
       23.5294270000        73.8676489948
p   1 1.0 
        9.8039280000        24.7280704473
p   1 1.0 
        4.0849700000         8.2780143929
p   1 1.0 
        1.7020710000         2.7711636791
p   1 1.0 
        0.7091960000         0.9276794468
p   1 1.0 
        0.2954980000         0.3105512418
p   1 1.0 
        0.1231240000         0.1039605296
p   1 1.0 
        0.0513020000         0.0348023010
d   7 1.0 
    42129.4422870000     56906.5227948507
    16851.7769150000     28000.6591442440
     6740.7107660000     31059.1451506409
     2696.2843060000     28550.8495479176
     1078.5137230000     30419.9475915360
      431.4054890000     27516.9214778059
      172.5621960000     18646.3556919396
d   1 1.0 
       69.0248780000      4712.2678372904
d   1 1.0 
       27.6099510000       948.0580852984
d   1 1.0 
       11.0439810000       190.7392068921
d   1 1.0 
        4.4175920000        38.3746907348
d   1 1.0 
        1.7670370000         7.7205805666
d   1 1.0 
        0.7068150000         1.5532993453
d   1 1.0 
        0.2827260000         0.3125072837
d   1 1.0 
        0.1130900000         0.0628727477
d   1 1.0 
        0.0452360000         0.0126493272
f   6 1.0 
     4574.1842730000     62886.0548377263
     1759.3016440000     54541.2436081452
      676.6544780000     60258.2175061621
      260.2517220000     58997.4055482529
      100.0968160000     42811.8352412536
       38.4987760000     17381.1576470009
f   1 1.0 
       14.8072210000      2452.2547560014
f   1 1.0 
        5.6950850000       285.6771815775
f   1 1.0 
        2.1904170000        33.2801582217
f   1 1.0 
        0.8424680000         3.8769951722
f   1 1.0 
        0.3240260000         0.4516528586
f   1 1.0 
        0.1246250000         0.0526152593

[5D]
[7F]
[9G]
[MO]
 Sym=     1a
 Ene= -4.37474532296538E+03
 Spin= Alpha
 Occup= 1.000000
  1      -0.087306408033
  2      -0.066328179220
  3      -0.113242556952
  4      -0.178787795937
  5      -0.264676233456
  6      -0.301327924232
  7      -0.190681157422
  8      -0.031597211992
  9      -0.000892681059
 10       0.000634030310
 11      -0.000461767101
 12       0.000340713028
 13      -0.000241738554
 14       0.000162603383
 15      -0.000107508077
 16       0.000070679712
 17      -0.000045585197
 18       0.000028194658
 19      -0.000015930766
 20       0.000007295727
 21      -0.000001965376
 22       0.000000000000
 23      -0.000000000000
 24      -0.000000000000
 25       0.000000000000
 26       0.000000000000
 27       0.000000000000
 28      -0.000000000000
 29      -0.000000000000
 30      -0.000000000000
 31       0.000000000000
 32       0.000000000000
 33       0.000000000000
 34       0.000000000000
 35      -0.000000000000
 36      -0.000000000000
 37      -0.000000000000
 38       0.000000000000
 39       0.000000000000
 40      -0.000000000000
 41      -0.000000000000
 42      -0.000000000000
 43       0.000000000000
 44       0.000000000000
 45       0.000000000000
 46      -0.000000000000
 47      -0.000000000000
 48      -0.000000000000
 49       0.000000000000
 50       0.000000000000
 51      -0.000000000000
 52      -0.000000000000
 53       0.000000000000
 54       0.000000000000
 55       0.000000000000
 56      -0.000000000000
 57      -0.000000000000
 58      -0.000000000000
 59       0.000000000000
 60       0.000000000000
 61       0.000000000004
 62       0.000000000002
 63       0.000000000001
 64      -0.000000000001
 65       0.000000000000
 66      -0.000000000003
 67      -0.000000000001
 68      -0.000000000001
 69      -0.000000000000
 70      -0.000000000000
 71       0.000000000002
 72       0.000000000001
 73       0.000000000001
 74      -0.000000000001
 75       0.000000000000
 76      -0.000000000001
 77      -0.000000000001
 78      -0.000000000000
 79       0.000000000000
 80      -0.000000000000
 81       0.000000000001
 82       0.000000000000
 83       0.000000000000
 84      -0.000000000000
 85       0.000000000000
 86      -0.000000000000
 87      -0.000000000000
 88      -0.000000000000
 89       0.000000000000
 90      -0.000000000000
 91       0.000000000000
 92       0.000000000000
 93       0.000000000000
 94       0.000000000000
 95       0.000000000000
 96      -0.000000000000
 97      -0.000000000000
 98      -0.000000000000
 99      -0.000000000000
100      -0.000000000000
101       0.000000000000
102       0.000000000000
103       0.000000000000
104       0.000000000000
105       0.000000000000
106      -0.000000000000
107      -0.000000000000
108      -0.000000000000
109      -0.000000000000
110      -0.000000000000
111       0.000000000000
112       0.000000000000
113       0.000000000000
114       0.000000000000
115      -0.000000000000
116      -0.000000000000
117      -0.000000000003
118      -0.000000000000
119       0.000000000000
120       0.000000000000
121      -0.000000000000
122      -0.000000000000
123       0.000000000000
124       0.000000000001
125      -0.000000000000
126      -0.000000000000
127      -0.000000000000
128       0.000000000000
129       0.000000000000
130      -0.000000000000
131       0.000000000002
132       0.000000000000
133       0.000000000000
134       0.000000000000
135      -0.000000000000
136      -0.000000000000
137       0.000000000000
138      -0.000000000001
139      -0.000000000000
140       0.000000000000
141      -0.000000000000
142       0.000000000000
143      -0.000000000000
144       0.000000000000
145       0.000000000001
146       0.000000000000
147      -0.000000000000
148       0.000000000000
149      -0.000000000000
150       0.000000000000
151       0.000000000000
152      -0.000000000001
153      -0.000000000000
154       0.000000000000
155       0.000000000000
156       0.000000000000
157       0.000000000000
158      -0.000000000000
159       0.000000000000
 Sym=     1a
 Ene= -8.30402350238562E+02
 Spin= Alpha
 Occup= 1.000000
  1      -0.037061832859
  2      -0.030425918205
  3      -0.050706243653
  4      -0.087784178123
  5      -0.139377586737
  6      -0.176535521508
  7      -0.067159138203
  8       0.374929018295
  9       0.607144472041
 10       0.165184791903
 11      -0.001951328652
 12       0.001578498460
 13      -0.000812279656
 14       0.000399201906
 15      -0.000211544933
 16       0.000129646657
 17      -0.000081487108
 18       0.000049398301
 19      -0.000027714241
 20       0.000012650993
 21      -0.000003403077
 22      -0.000000000000
 23       0.000000000000
 24       0.000000000000
 25      -0.000000000001
 26       0.000000000000
 27       0.000000000000
 28      -0.000000000000
 29       0.000000000000
 30       0.000000000000
 31      -0.000000000001
 32       0.000000000000
 33       0.000000000000
 34       0.000000000000
 35      -0.000000000000
 36       0.000000000000
 37      -0.000000000000
 38       0.000000000000
 39      -0.000000000000
 40       0.000000000001
 41      -0.000000000000
 42      -0.000000000000
 43      -0.000000000001
 44      -0.000000000000
 45       0.000000000000
 46       0.000000000001
 47      -0.000000000000
 48      -0.000000000000
 49      -0.000000000000
 50       0.000000000000
 51       0.000000000000
 52       0.000000000000
 53      -0.000000000001
 54      -0.000000000000
 55      -0.000000000001
 56       0.000000000004
 57       0.000000000001
 58       0.000000000000
 59      -0.000000000003
 60      -0.000000000000
 61      -0.000000000273
 62      -0.000000000127
 63      -0.000000000086
 64       0.000000000036
 65      -0.000000000031
 66      -0.000000000034
 67      -0.000000000011
 68      -0.000000000010
 69      -0.000000000034
 70      -0.000000000004
 71       0.000000000027
 72       0.000000000011
 73       0.000000000009
 74       0.000000000009
 75       0.000000000003
 76      -0.000000000009
 77      -0.000000000003
 78      -0.000000000002
 79      -0.000000000014
 80      -0.000000000001
 81       0.000000000002
 82      -0.000000000000
 83       0.000000000000
 84       0.000000000011
 85      -0.000000000000
 86      -0.000000000004
 87      -0.000000000000
 88       0.000000000000
 89      -0.000000000002
 90       0.000000000000
 91       0.000000000002
 92      -0.000000000001
 93      -0.000000000000
 94       0.000000000003
 95      -0.000000000001
 96       0.000000000002
 97       0.000000000002
 98      -0.000000000002
 99      -0.000000000001
100       0.000000000001
101      -0.000000000001
102      -0.000000000001
103       0.000000000001
104      -0.000000000001
105      -0.000000000001
106       0.000000000000
107       0.000000000000
108      -0.000000000000
109       0.000000000001
110       0.000000000000
111      -0.000000000000
112       0.000000000000
113       0.000000000000
114      -0.000000000000
115       0.000000000000
116       0.000000000000
117      -0.000000000001
118      -0.000000000000
119      -0.000000000000
120      -0.000000000000
121       0.000000000000
122      -0.000000000000
123      -0.000000000000
124       0.000000000011
125      -0.000000000000
126       0.000000000000
127       0.000000000000
128      -0.000000000000
129       0.000000000000
130       0.000000000000
131      -0.000000000068
132       0.000000000000
133      -0.000000000000
134      -0.000000000000
135       0.000000000000
136      -0.000000000000
137      -0.000000000000
138       0.000000000046
139      -0.000000000000
140      -0.000000000000
141       0.000000000000
142      -0.000000000000
143      -0.000000000000
144       0.000000000000
145      -0.000000000024
146      -0.000000000000
147       0.000000000001
148      -0.000000000001
149       0.000000000001
150       0.000000000000
151      -0.000000000000
152       0.000000000022
153      -0.000000000000
154      -0.000000000001
155      -0.000000000002
156      -0.000000000000
157      -0.000000000000
158       0.000000000000
159      -0.000000000009
 Sym=     1a
 Ene= -6.94730365046709E+02
 Spin= Alpha
 Occup= 1.000000
  1       0.000000000000
  2       0.000000000000
  3       0.000000000000
  4       0.000000000000
  5       0.000000000000
  6       0.000000000000
  7       0.000000000000
  8      -0.000000000001
  9      -0.000000000001
 10       0.000000000001
 11      -0.000000000001
 12       0.000000000001
 13      -0.000000000001
 14       0.000000000001
 15      -0.000000000002
 16       0.000000000006
 17      -0.000000000001
 18      -0.000000000013
 19       0.000000000031
 20      -0.000000000026
 21       0.000000000005
 22      -0.174576461588
 23       0.023659122467
 24       0.036603880961
 25      -0.295121202073
 26       0.039995705026
 27       0.061878796555
 28      -0.442799512930
 29       0.060009509922
 30       0.092842875340
 31      -0.231777307638
 32       0.031411151639
 33       0.048597324645
 34      -0.007578893236
 35       0.001027114213
 36       0.001589085396
 37      -0.004244560128
 38       0.000575235431
 39       0.000889967482
 40       0.002930797373
 41      -0.000397190389
 42      -0.000614507576
 43      -0.001799573160
 44       0.000243883515
 45       0.000377320981
 46       0.001080582380
 47      -0.000146443744
 48      -0.000226568397
 49      -0.000639960591
 50       0.000086729370
 51       0.000134182131
 52       0.000357799316
 53      -0.000048490033
 54      -0.000075020673
 55      -0.000172959830
 56       0.000023440035
 57       0.000036264918
 58       0.000054141317
 59      -0.000007337395
 60      -0.000011351944
 61       0.000000000003
 62       0.000000000001
 63       0.000000000001
 64      -0.000000000001
 65      -0.000000000004
 66       0.000000000002
 67       0.000000000000
 68      -0.000000000003
 69       0.000000000002
 70      -0.000000000001
 71      -0.000000000014
 72       0.000000000000
 73       0.000000000009
 74      -0.000000000016
 75       0.000000000004
 76       0.000000000079
 77      -0.000000000005
 78      -0.000000000046
 79       0.000000000014
 80      -0.000000000024
 81      -0.000000000069
 82       0.000000000007
 83       0.000000000042
 84      -0.000000000006
 85       0.000000000022
 86       0.000000000056
 87      -0.000000000015
 88      -0.000000000040
 89      -0.000000000004
 90      -0.000000000017
 91      -0.000000000036
 92       0.000000000011
 93       0.000000000025
 94       0.000000000030
 95       0.000000000013
 96       0.000000000019
 97      -0.000000000006
 98      -0.000000000012
 99      -0.000000000025
100      -0.000000000008
101      -0.000000000009
102       0.000000000003
103       0.000000000006
104       0.000000000013
105       0.000000000004
106       0.000000000003
107      -0.000000000001
108      -0.000000000002
109      -0.000000000005
110      -0.000000000002
111       0.000000000005
112       0.000000000088
113      -0.000000000011
114       0.000000000028
115       0.000000000070
116       0.000000000032
117      -0.000000000007
118       0.000000000036
119      -0.000000000062
120       0.000000000020
121      -0.000000000029
122      -0.000000000011
123      -0.000000000003
124       0.000000000008
125      -0.000000000041
126       0.000000000043
127      -0.000000000033
128       0.000000000005
129      -0.000000000042
130       0.000000000007
131      -0.000000000005
132       0.000000000018
133      -0.000000000023
134       0.000000000019
135       0.000000000002
136       0.000000000026
137      -0.000000000008
138       0.000000000002
139      -0.000000000010
140       0.000000000012
141      -0.000000000009
142      -0.000000000000
143      -0.000000000013
144       0.000000000003
145      -0.000000000001
146       0.000000000004
147      -0.000000000005
148       0.000000000004
149      -0.000000000000
150       0.000000000005
151      -0.000000000001
152       0.000000000000
153      -0.000000000001
154       0.000000000002
155      -0.000000000001
156       0.000000000000
157      -0.000000000002
158       0.000000000000
159       0.000000000000
 Sym=     1a
 Ene= -6.94730365003813E+02
 Spin= Alpha
 Occup= 1.000000
  1       0.000000000000
  2       0.000000000000
  3      -0.000000000000
  4       0.000000000000
  5      -0.000000000000
  6       0.000000000000
  7      -0.000000000000
  8       0.000000000000
  9       0.000000000000
 10      -0.000000000000
 11      -0.000000000000
 12       0.000000000001
 13      -0.000000000001
 14       0.000000000001
 15      -0.000000000001
 16       0.000000000001
 17      -0.000000000000
 18      -0.000000000002
 19       0.000000000005
 20      -0.000000000004
 21       0.000000000001
 22       0.015773398986
 23       0.175169286432
 24      -0.037992895331
 25       0.026664903316
 26       0.296123371429
 27      -0.064226922911
 28       0.040007990337
 29       0.444303166640
 30      -0.096366001426
 31       0.020941631622
 32       0.232564374490
 33      -0.050441456471
 34       0.000684771047
 35       0.007604629595
 36      -0.001649386721
 37       0.000383506118
 38       0.004258973731
 39      -0.000923739245
 40      -0.000264804523
 41      -0.002940749707
 42       0.000637826408
 43       0.000162595721
 44       0.001805684106
 45      -0.000391639250
 46      -0.000097633192
 47      -0.001084251796
 48       0.000235166029
 49       0.000057821964
 50       0.000642133751
 51      -0.000139273963
 52      -0.000032328020
 53      -0.000359014319
 54       0.000077867496
 55       0.000015627333
 56       0.000173547160
 57      -0.000037641069
 58      -0.000004891797
 59      -0.000054325167
 60       0.000011782719
 61      -0.000000000001
 62      -0.000000000001
 63      -0.000000000000
 64       0.000000000001
 65       0.000000000002
 66       0.000000000001
 67       0.000000000001
 68       0.000000000000
 69      -0.000000000002
 70      -0.000000000001
 71      -0.000000000002
 72      -0.000000000000
 73       0.000000000000
 74       0.000000000013
 75       0.000000000001
 76       0.000000000008
 77       0.000000000000
 78      -0.000000000004
 79      -0.000000000011
 80      -0.000000000003
 81      -0.000000000004
 82      -0.000000000002
 83       0.000000000001
 84       0.000000000006
 85       0.000000000002
 86      -0.000000000010
 87       0.000000000009
 88       0.000000000012
 89      -0.000000000003
 90       0.000000000002
 91       0.000000000010
 92      -0.000000000008
 93      -0.000000000011
 94       0.000000000005
 95      -0.000000000001
 96      -0.000000000005
 97       0.000000000005
 98       0.000000000006
 99      -0.000000000003
100       0.000000000001
101       0.000000000002
102      -0.000000000002
103      -0.000000000003
104       0.000000000002
105      -0.000000000000
106      -0.000000000001
107       0.000000000001
108       0.000000000001
109      -0.000000000001
110       0.000000000000
111       0.000000000128
112       0.000000000025
113      -0.000000000097
114       0.000000000041
115      -0.000000000028
116      -0.000000000016
117       0.000000000043
118      -0.000000000040
119      -0.000000000006
120       0.000000000060
121      -0.000000000013
122       0.000000000028
123       0.000000000009
124      -0.000000000007
125       0.000000000013
126       0.000000000002
127      -0.000000000036
128       0.000000000003
129      -0.000000000024
130      -0.000000000004
131      -0.000000000001
132      -0.000000000012
133      -0.000000000002
134       0.000000000019
135      -0.000000000004
136       0.000000000012
137       0.000000000002
138      -0.000000000002
139       0.000000000005
140       0.000000000001
141      -0.000000000009
142       0.000000000002
143      -0.000000000006
144      -0.000000000001
145      -0.000000000000
146      -0.000000000002
147      -0.000000000000
148       0.000000000004
149      -0.000000000000
150       0.000000000003
151       0.000000000001
152       0.000000000001
153       0.000000000001
154      -0.000000000000
155      -0.000000000001
156      -0.000000000000
157      -0.000000000001
158      -0.000000000000
159      -0.000000000001
 Sym=     1a
 Ene= -6.94730364776634E+02
 Spin= Alpha
 Occup= 1.000000
  1      -0.000000000000
  2      -0.000000000000
  3       0.000000000000
  4      -0.000000000000
  5       0.000000000000
  6      -0.000000000001
  7       0.000000000000
  8       0.000000000000
  9      -0.000000000001
 10       0.000000000001
 11      -0.000000000002
 12       0.000000000002
 13      -0.000000000001
 14       0.000000000001
 15      -0.000000000001
 16       0.000000000002
 17      -0.000000000001
 18      -0.000000000005
 19       0.000000000013
 20      -0.000000000011
 21       0.000000000002
 22      -0.040630014311
 23      -0.033652728506
 24      -0.172026843664
 25      -0.068684967924
 26      -0.056889878508
 27      -0.290811077461
 28      -0.103054847040
 29      -0.085357508412
 30      -0.436332606828
 31      -0.053942640517
 32      -0.044679212334
 33      -0.228392294344
 34      -0.001763872039
 35      -0.001460966926
 36      -0.007468206564
 37      -0.000987856785
 38      -0.000818214724
 39      -0.004182570140
 40       0.000682098481
 41       0.000564963492
 42       0.002887994274
 43      -0.000418823260
 44      -0.000346899836
 45      -0.001773291116
 46       0.000251489103
 47       0.000208301536
 48       0.001064800918
 49      -0.000148941086
 50      -0.000123363820
 51      -0.000630614223
 52       0.000083272344
 53       0.000068972199
 54       0.000352573797
 55      -0.000040253767
 56      -0.000033341091
 57      -0.000170433818
 58       0.000012600567
 59       0.000010436704
 60       0.000053350603
 61      -0.000000000000
 62      -0.000000000000
 63      -0.000000000000
 64       0.000000000000
 65       0.000000000001
 66       0.000000000002
 67       0.000000000001
 68      -0.000000000001
 69      -0.000000000001
 70      -0.000000000002
 71      -0.000000000006
 72      -0.000000000000
 73       0.000000000003
 74       0.000000000005
 75       0.000000000003
 76       0.000000000032
 77      -0.000000000002
 78      -0.000000000017
 79      -0.000000000004
 80      -0.000000000010
 81      -0.000000000024
 82       0.000000000001
 83       0.000000000014
 84       0.000000000003
 85       0.000000000008
 86       0.000000000008
 87       0.000000000003
 88      -0.000000000003
 89      -0.000000000004
 90      -0.000000000004
 91      -0.000000000002
 92      -0.000000000003
 93      -0.000000000002
 94       0.000000000013
 95       0.000000000003
 96       0.000000000001
 97       0.000000000002
 98       0.000000000001
 99      -0.000000000011
100      -0.000000000002
101      -0.000000000001
102      -0.000000000001
103      -0.000000000001
104       0.000000000006
105       0.000000000001
106       0.000000000000
107       0.000000000000
108       0.000000000000
109      -0.000000000002
110      -0.000000000000
111       0.000000000087
112       0.000000000118
113      -0.000000000056
114       0.000000000006
115       0.000000000020
116       0.000000000009
117      -0.000000000026
118      -0.000000000073
119      -0.000000000053
120      -0.000000000029
121       0.000000000001
122      -0.000000000014
123      -0.000000000003
124       0.000000000006
125       0.000000000041
126       0.000000000028
127       0.000000000022
128      -0.000000000007
129      -0.000000000009
130       0.000000000004
131      -0.000000000002
132      -0.000000000018
133      -0.000000000018
134      -0.000000000002
135       0.000000000004
136       0.000000000008
137      -0.000000000003
138       0.000000000002
139       0.000000000009
140       0.000000000008
141       0.000000000003
142      -0.000000000002
143      -0.000000000004
144       0.000000000002
145      -0.000000000000
146      -0.000000000005
147      -0.000000000004
148      -0.000000000001
149       0.000000000001
150       0.000000000002
151      -0.000000000001
152       0.000000000000
153       0.000000000002
154       0.000000000001
155       0.000000000001
156      -0.000000000000
157      -0.000000000001
158       0.000000000000
159      -0.000000000000
 Sym=     1a
 Ene= -2.14835254262247E+02
 Spin= Alpha
 Occup= 1.000000
  1      -0.018173841302
  2      -0.015145987004
  3      -0.025011151007
  4      -0.044470492279
  5      -0.070446464168
  6      -0.093723875822
  7      -0.022915334084
  8       0.301217046435
  9       0.689356361727
 10      -0.217652448412
 11      -0.982267765721
 12      -0.132007180890
 13      -0.020321928554
 14       0.015545548873
 15      -0.010938581741
 16       0.007482058230
 17      -0.004917950214
 18       0.003067270155
 19      -0.001740580922
 20       0.000798730885
 21      -0.000215364208
 22      -0.000000000000
 23      -0.000000000000
 24       0.000000000000
 25      -0.000000000000
 26      -0.000000000001
 27       0.000000000001
 28      -0.000000000001
 29      -0.000000000001
 30       0.000000000000
 31       0.000000000003
 32      -0.000000000000
 33       0.000000000000
 34      -0.000000000003
 35       0.000000000004
 36      -0.000000000003
 37       0.000000000003
 38       0.000000000000
 39      -0.000000000001
 40      -0.000000000008
 41       0.000000000000
 42       0.000000000000
 43       0.000000000008
 44       0.000000000001
 45      -0.000000000001
 46      -0.000000000006
 47       0.000000000001
 48       0.000000000002
 49       0.000000000004
 50      -0.000000000005
 51      -0.000000000003
 52      -0.000000000004
 53       0.000000000015
 54       0.000000000004
 55       0.000000000007
 56      -0.000000000045
 57      -0.000000000008
 58      -0.000000000002
 59       0.000000000031
 60       0.000000000002
 61       0.000000001752
 62       0.000000000778
 63       0.000000000549
 64       0.000000000031
 65       0.000000000192
 66       0.000000003937
 67       0.000000001751
 68       0.000000001226
 69      -0.000000000087
 70       0.000000000460
 71       0.000000001607
 72       0.000000000769
 73       0.000000000498
 74      -0.000000000649
 75       0.000000000192
 76      -0.000000000044
 77      -0.000000000032
 78      -0.000000000019
 79       0.000000000121
 80      -0.000000000005
 81       0.000000000117
 82       0.000000000058
 83       0.000000000043
 84      -0.000000000022
 85       0.000000000014
 86      -0.000000000029
 87      -0.000000000035
 88      -0.000000000027
 89       0.000000000047
 90      -0.000000000007
 91       0.000000000024
 92       0.000000000025
 93       0.000000000016
 94       0.000000000011
 95       0.000000000006
 96      -0.000000000042
 97      -0.000000000029
 98       0.000000000011
 99      -0.000000000033
100      -0.000000000013
101       0.000000000030
102       0.000000000018
103      -0.000000000009
104       0.000000000051
105       0.000000000006
106      -0.000000000011
107      -0.000000000006
108       0.000000000003
109      -0.000000000024
110      -0.000000000002
111       0.000000000001
112      -0.000000000002
113      -0.000000000003
114       0.000000000001
115      -0.000000000004
116      -0.000000000003
117       0.000000000035
118       0.000000000000
119       0.000000000002
120       0.000000000003
121      -0.000000000001
122       0.000000000002
123       0.000000000003
124      -0.000000000084
125       0.000000000000
126      -0.000000000001
127      -0.000000000002
128       0.000000000001
129      -0.000000000002
130      -0.000000000003
131       0.000000000574
132       0.000000000000
133       0.000000000000
134       0.000000000001
135      -0.000000000001
136       0.000000000001
137       0.000000000002
138      -0.000000000379
139      -0.000000000000
140       0.000000000001
141      -0.000000000002
142       0.000000000002
143       0.000000000001
144      -0.000000000001
145       0.000000000207
146       0.000000000003
147      -0.000000000014
148       0.000000000007
149      -0.000000000007
150      -0.000000000003
151       0.000000000003
152      -0.000000000226
153       0.000000000001
154       0.000000000009
155       0.000000000021
156       0.000000000003
157       0.000000000003
158      -0.000000000003
159       0.000000000094
 Sym=     1a
 Ene= -1.76546055656538E+02
 Spin= Alpha
 Occup= 1.000000
  1       0.000000000000
  2       0.000000000000
  3       0.000000000000
  4       0.000000000000
  5       0.000000000000
  6      -0.000000000000
  7       0.000000000000
  8      -0.000000000001
  9      -0.000000000001
 10      -0.000000000002
 11       0.000000000008
 12      -0.000000000002
 13      -0.000000000002
 14       0.000000000005
 15      -0.000000000019
 16       0.000000000013
 17       0.000000000011
 18      -0.000000000030
 19       0.000000000022
 20      -0.000000000015
 21       0.000000000007
 22       0.097578549236
 23      -0.015001890671
 24      -0.020246741708
 25       0.177164965508
 26      -0.027237640481
 27      -0.036760264670
 28       0.269893973231
 29      -0.041493954480
 30      -0.056000766641
 31      -0.121236393497
 32       0.018639087556
 33       0.025155548683
 34      -0.718785162761
 35       0.110507242818
 36       0.149141974857
 37      -0.243716839344
 38       0.037469437533
 39       0.050569227810
 40       0.007281852919
 41      -0.001119524318
 42      -0.001510924223
 43      -0.005635137445
 44       0.000866355537
 45       0.001169244400
 46       0.003211189812
 47      -0.000493693719
 48      -0.000666295314
 49      -0.001799487116
 50       0.000276656155
 51       0.000373378683
 52       0.000992249996
 53      -0.000152550155
 54      -0.000205883656
 55      -0.000477652393
 56       0.000073435064
 57       0.000099108913
 58       0.000149308813
 59      -0.000022954985
 60      -0.000030980339
 61      -0.000000000020
 62       0.000000000008
 63      -0.000000000001
 64       0.000000000017