[Molden Format]
[Title]
 Molden file created by orca_2mkl for BaseName=/data01/Nikolayandreadi/heavy/opt3/PuO2_2+

[Atoms] AU
Pu   1  94        -15.3098694973         9.5432530366       -62.6022728878 
O    2   8        -13.0280233008        11.4757096578       -62.8012534908 
O    3   8        -17.6129562154         7.6404273211       -62.8494018230 
[GTO]
  1 0
s   9 1.0 
 61522220.6225290000     17063.6754636881
 27964645.7375129983     -6251.6280422765
 12711202.6079610009      9671.6986576994
  5777819.3672550004       289.2210734849
  2626281.5305699999      4464.1627617163
  1193764.3320770001      2006.5541689788
   542620.1509440000      2788.3025657130
   246645.5231560000      2062.8458110195
   112111.6014350000      2113.6106705618
s   1 1.0 
    50959.8188340000      2417.3024864446
s   1 1.0 
    23163.5540150000      1338.1783156871
s   1 1.0 
    10528.8881890000       740.7931835960
s   1 1.0 
     4785.8582680000       410.0907438407
s   1 1.0 
     2175.3901220000       227.0193920667
s   1 1.0 
      988.8136920000       125.6741468865
s   1 1.0 
      449.4607690000        69.5711104117
s   1 1.0 
      204.3003500000        38.5134057612
s   1 1.0 
       92.8637950000        21.3203786259
s   1 1.0 
       42.2108160000        11.8026058245
s   1 1.0 
       19.1867350000         6.5337257345
s   1 1.0 
        8.7212430000         3.6169614730
s   1 1.0 
        3.9642010000         2.0022893726
s   1 1.0 
        1.8019100000         1.1084341915
s   1 1.0 
        0.8190500000         0.6136106705
s   1 1.0 
        0.3722950000         0.3396843160
s   1 1.0 
        0.1692250000         0.1880435685
s   1 1.0 
        0.0769210000         0.1040983350
s   1 1.0 
        0.0349640000         0.0576269887
s   1 1.0 
        0.0158930000         0.0319017498
p   8 1.0 
   879013.3813660000    139189.6694195126
   366255.5755690000     11873.5310695809
   152606.4898210000     40255.8773916045
    63586.0374250000     19887.9699123185
    26494.1822610000     19138.0697118639
    11039.2426090000     15284.2547358037
     4599.6844200000     14199.0747202623
     1916.5351750000     12759.1191870144
p   1 1.0 
      798.5563230000      6050.9286073116
p   1 1.0 
      332.7318010000      2025.6199998139
p   1 1.0 
      138.6382510000       678.1002843303
p   1 1.0 
       57.7659380000       227.0021001283
p   1 1.0 
       24.0691410000        75.9916416591
p   1 1.0 
       10.0288090000        25.4391026723
p   1 1.0 
        4.1786700000         8.5160397883
p   1 1.0 
        1.7411130000         2.8508461829
p   1 1.0 
        0.7254640000         0.9543549283
p   1 1.0 
        0.3022760000         0.3194807322
p   1 1.0 
        0.1259490000         0.1069506658
p   1 1.0 
        0.0524790000         0.0358032150
d   7 1.0 
    43223.8765000000     60764.0080375267
    17289.5506000000     29755.0800020834
     6915.8202400000     32871.2311092175
     2766.3280960000     30065.6700485816
     1106.5312380000     31905.5201083940
      442.6124950000     28787.6778141197
      177.0449980000     19499.0030796932
d   1 1.0 
       70.8179990000      4928.5761768021
d   1 1.0 
       28.3272000000       991.5770557751
d   1 1.0 
       11.3308800000       199.4947420861
d   1 1.0 
        4.5323520000        40.1362172392
d   1 1.0 
        1.8129410000         8.0749809665
d   1 1.0 
        0.7251760000         1.6245985936
d   1 1.0 
        0.2900710000         0.3268531162
d   1 1.0 
        0.1160280000         0.0657589689
d   1 1.0 
        0.0464110000         0.0132299043
f   6 1.0 
     4758.8680260000     68069.5976130275
     1830.3338560000     59148.9500505355
      703.9745600000     64844.9511990799
      270.7594460000     63667.3327460647
      104.1382490000     46445.9881466115
       40.0531730000     19036.1414891793
f   1 1.0 
       15.4050660000      2680.6684110836
f   1 1.0 
        5.9250260000       312.2864675901
f   1 1.0 
        2.2788560000        36.3800311270
f   1 1.0 
        0.8764830000         4.2381170555
f   1 1.0 
        0.3371090000         0.4937230016
f   1 1.0 
        0.1296570000         0.0575163091

  2 0
s   6 1.0 
    27032.3826310000         1.4645050749
     4052.3871392000         1.8244031008
      922.3272271000         2.8547160967
      261.2407098900         4.3654874290
       85.3546413500         5.8940772662
       31.0350352400         6.2963020147
s   1 1.0 
       12.2608607300         4.6698272139
s   1 1.0 
        4.9987076000         2.3826123703
s   1 1.0 
        1.1703108200         0.8019291632
s   1 1.0 
        0.4647474100        -0.4011648063
s   1 1.0 
        0.1850453600         0.2010799377
p   4 1.0 
       63.2749548000         3.0898340730
       14.6270493800         3.3923831935
        4.4501223500         2.9482801524
        1.5275799600         1.7113350234
p   1 1.0 
        0.5293511800         0.6436057935
p   1 1.0 
        0.1747842100         0.1610897223
d   1 1.0 
        2.3140000000        12.3767310624
d   1 1.0 
        0.6450000000         1.3234257612
f   1 1.0 
        1.4280000000        12.7097950062

  3 0
s   6 1.0 
    27032.3826310000         1.4645050749
     4052.3871392000         1.8244031008
      922.3272271000         2.8547160967
      261.2407098900         4.3654874290
       85.3546413500         5.8940772662
       31.0350352400         6.2963020147
s   1 1.0 
       12.2608607300         4.6698272139
s   1 1.0 
        4.9987076000         2.3826123703
s   1 1.0 
        1.1703108200         0.8019291632
s   1 1.0 
        0.4647474100        -0.4011648063
s   1 1.0 
        0.1850453600         0.2010799377
p   4 1.0 
       63.2749548000         3.0898340730
       14.6270493800         3.3923831935
        4.4501223500         2.9482801524
        1.5275799600         1.7113350234
p   1 1.0 
        0.5293511800         0.6436057935
p   1 1.0 
        0.1747842100         0.1610897223
d   1 1.0 
        2.3140000000        12.3767310624
d   1 1.0 
        0.6450000000         1.3234257612
f   1 1.0 
        1.4280000000        12.7097950062

[5D]
[7F]
[9G]
[MO]
 Sym=     1a
 Ene= -4.48927650992330E+03
 Spin= Alpha
 Occup= 1.000000
  1       0.089707921889
  2       0.067509884951
  3       0.114800010832
  4       0.180028527724
  5       0.264902150853
  6       0.299424096180
  7       0.188404354211
  8       0.030966256391
  9       0.000918193761
 10      -0.000657264906
 11       0.000477754148
 12      -0.000351296163
 13       0.000249463769
 14      -0.000169060822
 15       0.000113751114
 16      -0.000077577906
 17       0.000052999185
 18      -0.000034361428
 19       0.000008075964
 20      -0.000004468249
 21       0.000001305189
 22       0.000000000286
 23       0.000000000001
 24       0.000000002248
 25      -0.000000000490
 26       0.000000000835
 27      -0.000000011721
 28      -0.000000000272
 29       0.000000000534
 30      -0.000000007169
 31       0.000000000085
 32      -0.000000000260
 33       0.000000003115
 34      -0.000000000202
 35       0.000000000556
 36      -0.000000006825
 37       0.000000000430
 38      -0.000000001080
 39       0.000000013549
 40      -0.000000000668
 41       0.000000001741
 42      -0.000000021635
 43       0.000000001225
 44      -0.000000003071
 45       0.000000038533
 46      -0.000000002682
 47       0.000000005901
 48      -0.000000076638
 49       0.000000007516
 50      -0.000000012617
 51       0.000000177904
 52      -0.000000017758
 53       0.000000023917
 54      -0.000000364909
 55       0.000000045374
 56      -0.000000076391
 57       0.000001076153
 58      -0.000000001382
 59       0.000000002906
 60      -0.000000038221
 61       0.000000023272
 62      -0.000000000456
 63      -0.000000000441
 64      -0.000000007023
 65      -0.000000039131
 66      -0.000000052312
 67       0.000000001102
 68       0.000000000929
 69       0.000000015996
 70       0.000000089131
 71      -0.000000009866
 72       0.000000000252
 73       0.000000000155
 74       0.000000003113
 75       0.000000017339
 76       0.000000053473
 77      -0.000000001214
 78      -0.000000000909
 79      -0.000000016540
 80      -0.000000092151
 81      -0.000000125177
 82       0.000000002803
 83       0.000000002150
 84       0.000000038628
 85       0.000000215223
 86       0.000000235939
 87      -0.000000005247
 88      -0.000000004094
 89      -0.000000072693
 90      -0.000000405007
 91      -0.000000314302
 92       0.000000006801
 93       0.000000005665
 94       0.000000096229
 95       0.000000536114
 96       0.000000069593
 97      -0.000000000502
 98      -0.000000002133
 99      -0.000000018473
100      -0.000000102892
101       0.000002176909
102      -0.000000051811
103      -0.000000033216
104      -0.000000682807
105      -0.000003804885
106      -0.000000451794
107       0.000000010129
108       0.000000007516
109       0.000000139827
110       0.000000779131
111       0.000000001760
112      -0.000000000001
113      -0.000000000077
114      -0.000000000405
115      -0.000000002239
116       0.000000000200
117       0.000000000108
118      -0.000000005017
119      -0.000000000001
120       0.000000000216
121       0.000000001154
122       0.000000006379
123      -0.000000000565
124      -0.000000000315
125       0.000000011020
126       0.000000000008
127      -0.000000000470
128      -0.000000002533
129      -0.000000014008
130       0.000000001237
131       0.000000000699
132      -0.000000020940
133      -0.000000000046
134       0.000000000870
135       0.000000004811
136       0.000000026605
137      -0.000000002324
138      -0.000000001371
139       0.000000027795
140       0.000000000211
141      -0.000000001051
142      -0.000000006364
143      -0.000000035188
144       0.000000002956
145       0.000000002019
146       0.000000074544
147      -0.000000000745
148      -0.000000003652
149      -0.000000017337
150      -0.000000095890
151       0.000000009059
152       0.000000003756
153      -0.000000308934
154       0.000000002463
155       0.000000014970
156       0.000000071483
157       0.000000395337
158      -0.000000036987
159      -0.000000016110
160      -0.000000018139
161       0.000000078195
162      -0.000000139263
163       0.000000743300
164       0.000002216158
165       0.000007234360
166       0.000000036394
167       0.000000032504
168      -0.000000018998
169       0.000000477228
170       0.000000396585
171       0.000000029607
172      -0.000001854959
173      -0.000001541048
174      -0.000000119374
175       0.000000053640
176       0.000000013063
177       0.000000010700
178      -0.000000014542
179      -0.000000089485
180       0.000000119110
181      -0.000000002631
182      -0.000000001408
183      -0.000000037718
184      -0.000000210390
185      -0.000000022336
186       0.000000057195
187       0.000000048842
188       0.000000004484
189       0.000000028696
190      -0.000000053903
191       0.000000088107
192      -0.000000018110
193       0.000000078116
194      -0.000000139287
195       0.000000744060
196       0.000002214680
197       0.000007222892
198      -0.000000037621
199      -0.000000029416
200      -0.000000019714
201      -0.000000475669
202      -0.000000400499
203       0.000000019496
204       0.000001843569
205       0.000001552768
206      -0.000000080635
207       0.000000053037
208      -0.000000015089
209      -0.000000012818
210      -0.000000017404
211      -0.000000088506
212       0.000000119838
213      -0.000000003523
214      -0.000000002150
215      -0.000000038039
216      -0.000000211655
217      -0.000000025104
218      -0.000000056267
219      -0.000000046099
220       0.000000006507
221       0.000000032101
222       0.000000047750
223      -0.000000089774
 Sym=     1a
 Ene= -8.54975065050008E+02
 Spin= Alpha
 Occup= 1.000000
  1       0.038294293690
  2       0.031157074181
  3       0.051668763591
  4       0.088896016554
  5       0.140007152417
  6       0.175204938881
  7       0.061928597796
  8      -0.380727310565
  9      -0.603126270366
 10      -0.160427372580
 11       0.001806578495
 12      -0.001356436109
 13       0.000661770653
 14      -0.000302862510
 15       0.000150287112
 16      -0.000092037175
 17       0.000060037804
 18      -0.000037933170
 19       0.000008973854
 20      -0.000004908470
 21       0.000001428238
 22       0.000000010008
 23      -0.000000021861
 24       0.000000284507
 25       0.000000014365
 26      -0.000000033372
 27       0.000000427133
 28       0.000000033018
 29      -0.000000068446
 30       0.000000904042
 31       0.000000010569
 32      -0.000000032890
 33       0.000000392667
 34      -0.000000004392
 35       0.000000003255
 36      -0.000000065211
 37       0.000000003538
 38      -0.000000005350
 39       0.000000078202
 40      -0.000000002085
 41       0.000000003853
 42      -0.000000052717
 43       0.000000001983
 44      -0.000000004377
 45       0.000000056841
 46      -0.000000003809
 47       0.000000007953
 48      -0.000000104882
 49       0.000000008768
 50      -0.000000014774
 51       0.000000208142
 52      -0.000000018713
 53       0.000000024423
 54      -0.000000377279
 55       0.000000047916
 56      -0.000000082600
 57       0.000001154628
 58      -0.000000001418
 59       0.000000003079
 60      -0.000000040150
 61      -0.000002126815
 62       0.000000041497
 63       0.000000040736
 64       0.000000640868
 65       0.000003570849
 66      -0.000002158595
 67       0.000000045361
 68       0.000000038988
 69       0.000000658831
 70       0.000003670871
 71       0.000000569485
 72      -0.000000011742
 73      -0.000000010438
 74      -0.000000173248
 75      -0.000000965323
 76      -0.000000383293
 77       0.000000007999
 78       0.000000006944
 79       0.000000116872
 80       0.000000651200
 81       0.000000150280
 82      -0.000000003065
 83      -0.000000002756
 84      -0.000000045665
 85      -0.000000254468
 86       0.000000148100
 87      -0.000000003391
 88      -0.000000002534
 89      -0.000000045826
 90      -0.000000255279
 91      -0.000000146547
 92       0.000000003152
 93       0.000000002793
 94       0.000000044598
 95       0.000000248406
 96       0.000000030134
 97       0.000000000389
 98      -0.000000001429
 99      -0.000000006325
100      -0.000000035224
101       0.000002371621
102      -0.000000056308
103      -0.000000036273
104      -0.000000743552
105      -0.000004143367
106      -0.000000492682
107       0.000000011029
108       0.000000008205
109       0.000000152443
110       0.000000849435
111      -0.000000039903
112       0.000000000255
113       0.000000001911
114       0.000000009203
115       0.000000050888
116      -0.000000004715
117      -0.000000002153
118       0.000000011825
119      -0.000000000123
120      -0.000000000604
121      -0.000000002730
122      -0.000000015091
123       0.000000001437
124       0.000000000571
125       0.000000002706
126       0.000000000090
127      -0.000000000048
128      -0.000000000615
129      -0.000000003402
130       0.000000000231
131       0.000000000293
132      -0.000000011090
133      -0.000000000147
134       0.000000000371
135       0.000000002537
136       0.000000014029
137      -0.000000001128
138      -0.000000000895
139       0.000000012395
140       0.000000000397
141      -0.000000000246
142      -0.000000002808
143      -0.000000015522
144       0.000000001060
145       0.000000001318
146       0.000000082361
147      -0.000000000750
148      -0.000000003980
149      -0.000000019148
150      -0.000000105904
151       0.000000009946
152       0.000000004248
153      -0.000000332018
154       0.000000002716
155       0.000000016149
156       0.000000076821
157       0.000000424859
158      -0.000000039810
159      -0.000000017210
160      -0.000000017852
161       0.000000078111
162      -0.000000132601
163       0.000000706358
164       0.000002297294
165       0.000007847517
166       0.000000058351
167       0.000000051064
168      -0.000000020590
169       0.000000438969
170       0.000000363874
171       0.000000035873
172      -0.000002015558
173      -0.000001675066
174      -0.000000124102
175       0.000000059474
176       0.000000013403
177       0.000000010945
178      -0.000000016215
179      -0.000000099065
180       0.000000081034
181      -0.000000008497
182      -0.000000006276
183      -0.000000026838
184      -0.000000145776
185      -0.000000028836
186       0.000000089226
187       0.000000075949
188       0.000000005878
189       0.000000036988
190      -0.000000081993
191       0.000000135373
192      -0.000000017808
193       0.000000077968
194      -0.000000132537
195       0.000000707284
196       0.000002296017
197       0.000007833510
198      -0.000000059682
199      -0.000000047677
200      -0.000000021754
201      -0.000000437294
202      -0.000000369102
203       0.000000026499
204       0.000002003392
205       0.000001686795
206      -0.000000082069
207       0.000000058882
208      -0.000000015640
209      -0.000000013318
210      -0.000000019178
211      -0.000000098113
212       0.000000082183
213       0.000000003880
214       0.000000004067
215      -0.000000025853
216      -0.000000147736
217      -0.000000033235
218      -0.000000088142
219      -0.000000072447
220       0.000000008480
221       0.000000042437
222       0.000000074058
223      -0.000000137727
 Sym=     1a
 Ene= -7.12662614142654E+02
 Spin= Alpha
 Occup= 1.000000
  1      -0.000000063362
  2      -0.000000052265
  3      -0.000000083383
  4      -0.000000154314
  5      -0.000000217099
  6      -0.000000333569
  7       0.000000010132
  8       0.000000529764
  9       0.000001003583
 10       0.000000083591
 11       0.000001001988
 12      -0.000001819929
 13       0.000002411726
 14      -0.000002723195
 15       0.000000776101
 16       0.000008464366
 17      -0.000023364063
 18       0.000030882868
 19      -0.000063403330
 20       0.000016927504
 21      -0.000003818943
 22       0.008374993177
 23      -0.012255583767
 24       0.181154962164
 25       0.014058765243
 26      -0.020572957075
 27       0.304097571439
 28       0.021000662798
 29      -0.030731413682
 30       0.454254012355
 31       0.010939459090
 32      -0.016008305810
 33       0.236625535758
 34       0.000348512535
 35      -0.000509999486
 36       0.007538506596
 37       0.000201324915
 38      -0.000294606833
 39       0.004354723657
 40      -0.000138934639
 41       0.000203305832
 42      -0.003005175257
 43       0.000085543478
 44      -0.000125172698
 45       0.001850272476
 46      -0.000051673042
 47       0.000075602737
 48      -0.001117588031
 49       0.000031169505
 50      -0.000045576031
 51       0.000673873489
 52      -0.000018230313
 53       0.000026574658
 54      -0.000393365215
 55       0.000010134483
 56      -0.000014562287
 57       0.000216695731
 58      -0.000002235144
 59       0.000003270755
 60      -0.000048346378
 61      -0.000000325650
 62      -0.000000028722
 63       0.000000048274
 64      -0.000000018877
 65      -0.000000110001
 66       0.000000066271
 67       0.000000015886
 68      -0.000000016128
 69       0.000000028253
 70       0.000000157635
 71       0.000000283022
 72      -0.000000017690
 73       0.000000007636
 74      -0.000000123457
 75      -0.000000688962
 76      -0.000000571938
 77       0.000000028595
 78      -0.000000007319
 79       0.000000226339
 80       0.000001262598
 81       0.000001169144
 82      -0.000000050910
 83       0.000000006922
 84      -0.000000439108
 85      -0.000002448932
 86      -0.000002443798
 87       0.000000097353
 88      -0.000000004743
 89       0.000000889404
 90       0.000004959694
 91       0.000004567291
 92      -0.000000197631
 93       0.000000020850
 94      -0.000001703717
 95      -0.000009500375
 96      -0.000003915413
 97       0.000000300865
 98      -0.000000144659
 99       0.000001850154
100       0.000010322669
101       0.000007654002
102      -0.000000572293
103       0.000000281253
104      -0.000003591589
105      -0.000020043160
106      -0.000000631181
107       0.000000013150
108       0.000000009021
109       0.000000196259
110       0.000001094401
111       0.000001118574
112      -0.000000004514
113      -0.000000056283
114      -0.000000252909
115      -0.000001398519
116       0.000000130047
117       0.000000058539
118      -0.000000639313
119       0.000000001883
120       0.000000032736
121       0.000000143369
122       0.000000792714
123      -0.000000073679
124      -0.000000033239
125      -0.000000388696
126       0.000000004838
127       0.000000016921
128       0.000000093405
129       0.000000516804
130      -0.000000048278
131      -0.000000021268
132       0.000002091394
133      -0.000000017041
134      -0.000000098569
135      -0.000000487113
136      -0.000002694329
137       0.000000251237
138       0.000000111615
139      -0.000005439720
140       0.000000042902
141       0.000000258469
142       0.000001263662
143       0.000006989127
144      -0.000000651826
145      -0.000000289329
146       0.000015031817
147      -0.000000110072
148      -0.000000708245
149      -0.000003490940
150      -0.000019307084
151       0.000001793457
152       0.000000811888
153      -0.000022513700
154       0.000000153425
155       0.000001053746
156       0.000005225777
157       0.000028902306
158      -0.000002676946
159      -0.000001229047
160      -0.000000148198
161       0.000000632468
162      -0.000000972738
163       0.000002139504
164       0.000014645946
165       0.000037811305
166       0.000000515988
167       0.000000710406
168      -0.000002615388
169       0.000002688248
170       0.000000474508
171       0.000016706816
172      -0.000007070081
173      -0.000002032469
174      -0.000036563677
175       0.000000284561
176       0.000000301269
177       0.000000237962
178      -0.000000032064
179      -0.000000358431
180      -0.000000768424
181      -0.000006161620
182      -0.000005234231
183      -0.000000295759
184       0.000002098923
185       0.000000917403
186       0.000001452063
187       0.000001175681
188      -0.000000201670
189      -0.000001162711
190      -0.000001071611
191       0.000002104192
192      -0.000000148796
193       0.000000635312
194      -0.000000978409
195       0.000002167213
196       0.000014726414
197       0.000038041108
198      -0.000000757351
199      -0.000000354770
200      -0.000002628514
201      -0.000001170331
202      -0.000002751313
203       0.000016648856
204       0.000003738807
205       0.000007004708
206      -0.000036408764
207       0.000000274435
208      -0.000000298711
209      -0.000000263264
210      -0.000000093914
211      -0.000000342166
212      -0.000000536232
213       0.000006288610
214       0.000005166500
215       0.000000981570
216       0.000001726161
217       0.000000832582
218      -0.000001460653
219      -0.000001260113
220      -0.000000198816
221      -0.000001053496
222       0.000001277930
223      -0.000002011710
 Sym=     1a
 Ene= -7.12662587385097E+02
 Spin= Alpha
 Occup= 1.000000
  1      -0.000000000004
  2      -0.000000000003
  3      -0.000000000006
  4      -0.000000000006
  5      -0.000000000017
  6      -0.000000000013
  7      -0.000000000008
  8       0.000000000041
  9       0.000000000048
 10       0.000000000011
 11       0.000000000050
 12      -0.000000000098
 13       0.000000000133
 14      -0.000000000155
 15       0.000000000056
 16       0.000000000457
 17      -0.000000001308
 18       0.000000001741
 19      -0.000000003584
 20       0.000000000963
 21      -0.000000000221
 22      -0.116326772950
 23       0.138878697759
 24       0.014773404004
 25      -0.195273087452
 26       0.233130098982
 27       0.024799520682
 28      -0.291694492866
 29       0.348244434924
 30       0.037044959471
 31      -0.151946543426
 32       0.181403966976
 33       0.019297085413
 34      -0.004840849337
 35       0.005779330383
 36       0.000614783863
 37      -0.002796186675
 38       0.003338275041
 39       0.000355113404
 40       0.001929463017
 41      -0.002303522245
 42      -0.000245040219
 43      -0.001187651508
 44       0.001417897931
 45       0.000150830789
 46       0.000716840674
 47      -0.000855812384
 48      -0.000091038236
 49      -0.000431516400
 50       0.000515173148
 51       0.000054802329
 52       0.000251392413
 53      -0.000300129098
 54      -0.000031926735
 55      -0.000137191741
 56       0.000163788743
 57       0.000017423413
 58       0.000031283970
 59      -0.000037348898
 60      -0.000003973017
 61      -0.000000048009
 62       0.000000217398
 63      -0.000000258500
 64      -0.000000012841
 65      -0.000000025872
 66       0.000000019375
 67      -0.000000087536
 68       0.000000104540
 69       0.000000001597
 70       0.000000011092
 71      -0.000000014345
 72       0.000000065020
 73      -0.000000077402
 74      -0.000000003119
 75      -0.000000007913
 76       0.000000019616
 77      -0.000000088931
 78       0.000000105903
 79       0.000000004049
 80       0.000000010879
 81      -0.000000030645
 82       0.000000139018
 83      -0.000000165549
 84      -0.000000006330
 85      -0.000000017037
 86       0.000000052704
 87      -0.000000239150
 88       0.000000284816
 89       0.000000010778
 90       0.000000029361
 91      -0.000000114367
 92       0.000000518524
 93      -0.000000617975
 94      -0.000000020071
 95      -0.000000064198
 96       0.000000250268
 97      -0.000001132914
 98       0.000001350609
 99       0.000000040593
100       0.000000140257
101      -0.000000484431
102       0.000002193923
103      -0.000002613524
104      -0.000000093945
105      -0.000000268768
106       0.000000000266
107      -0.000000001538
108       0.000000001468
109       0.000000002902
110      -0.000000000281
111       0.000000094398
112      -0.000000305596
113       0.000000360174
114       0.000000002363
115      -0.000000118415
116      -0.000001539168
117      -0.000000880598
118      -0.000000058305
119       0.000000188707
120      -0.000000222440
121      -0.000000001549
122       0.000000071796
123       0.000000939085
124       0.000000537272
125      -0.000000018639
126       0.000000060571
127      -0.000000071246
128       0.000000000026
129       0.000000030171
130       0.000000362558
131       0.000000207450
132       0.000000142387
133      -0.000000461559
134       0.000000543612
135       0.000000002301
136      -0.000000196340
137      -0.000002474719
138      -0.000001415910
139      -0.000000380173
140       0.000001232216
141      -0.000001451322
142      -0.000000006837
143       0.000000518987
144       0.000006561788
145       0.000003754272
146       0.000001117482
147      -0.000003622040
148       0.000004266075
149       0.000000021142
150      -0.000001521454
151      -0.000019252371
152      -0.000011014943
153      -0.000001714376
154       0.000005556572
155      -0.000006544833
156      -0.000000032133
157       0.000002329203
158       0.000029494745
159       0.000016875012
160      -0.000000000005
161       0.000000000025
162      -0.000000000043
163       0.000000000115
164       0.000000000822
165       0.000000002124
166       0.000001615974
167      -0.000001929178
168      -0.000000205227
169      -0.000010654507
170       0.000012720270
171       0.000001353133
172       0.000023624255
173      -0.000028204824
174      -0.000003000283
175       0.000000010236
176      -0.000000027711
177       0.000000070625
178      -0.000000289945
179       0.000000057623
180       0.000000044216
181      -0.000000674261
182      -0.000000158458
183       0.000007472727
184      -0.000001305026
185       0.000000099140
186      -0.000000311847
187       0.000000386305
188      -0.000000089746
189      -0.000000113565
190      -0.000001660284
191      -0.000000960542
192      -0.000000000009
193       0.000000000036
194      -0.000000000057
195       0.000000000137
196       0.000000000851
197       0.000000002171
198       0.000001616084
199      -0.000001929461
200      -0.000000205252
201      -0.000010646401
202       0.000012710165
203       0.000001352075
204       0.000023606005
205      -0.000028181795
206      -0.000002997882
207       0.000000009576
208      -0.000000061788
209       0.000000035992
210       0.000000293708
211      -0.000000046736
212       0.000000061466
213       0.000000196412
214       0.000000729063
215      -0.000007462857
216       0.000001365506
217       0.000000097845
218      -0.000000326264
219       0.000000365827
220       0.000000092438
221      -0.000000145031
222      -0.000001653752
223      -0.000000935689
 Sym=     1a
 Ene= -7.12658186247885E+02
 Spin= Alpha
 Occup= 1.000000
  1      -0.000000001182
  2      -0.000000000975
  3      -0.000000001562
  4      -0.000000002874
  5      -0.000000004098
  6      -0.000000006087
  7      -0.000000000266
  8       0.000000010431
  9       0.000000027560
 10      -0.000000013872
 11       0.000000018957
 12      -0.000000033533
 13       0.000000051221
 14      -0.000000065017
 15       0.000000033785
 16       0.000000149617
 17      -0.000000381519
 18       0.000000245608
 19       0.000000006864
 20       0.000000001775
 21      -0.000000001834
 22      -0.139411379535
 23      -0.116619300130
 24      -0.001444444253
 25      -0.234024963898
 26      -0.195764704386
 27      -0.002424737608
 28      -0.349580456649
 29      -0.292428267528
 30      -0.003622010656
 31      -0.182101922951
 32      -0.152330454457
 33      -0.001886762240
 34      -0.005782069585
 35      -0.004836771066
 36      -0.000059906952
 37      -0.003381345191
 38      -0.002828535849
 39      -0.000035035827
 40       0.002363304444
 41       0.001976932381
 42       0.000024488992
 43      -0.001510006514
 44      -0.001263138181
 45      -0.000015649666
 46       0.001006017110
 47       0.000841544612
 48       0.000010430972