[Molden Format]
[Title]
 Molden file created by orca_2mkl for BaseName=/data01/nikolayandreadi/sCC/Cl2

[Atoms] AU
Cl   1  17          3.7553091268         0.0000000000         0.0000000000 
Cl   2  17         -0.0060924771         0.0000000000         0.0000000000 
[GTO]
  1 0
s   7 1.0 
    69507.9909450000         4.1142286333
    10426.1568800000         4.2286655222
     2373.2334061000         5.8493829067
      671.5642007100         8.3358677251
      218.4199979000        10.0089622684
       77.5722497100         8.2783277553
       28.8888152800         2.9822029766
s   1 1.0 
      127.1052718500        26.9794296956
s   1 1.0 
       39.3395829600        11.1952141621
s   1 1.0 
        7.6740680000         3.2860890225
s   1 1.0 
        3.8745627600        -1.9682357562
s   1 1.0 
        1.8385832600         1.1253110111
s   1 1.0 
        0.5022905800        -0.4252324193
s   1 1.0 
        0.1796272300         0.1966478587
p   6 1.0 
      666.5042328400        13.1758105786
      157.6424169000        16.0544655669
       50.2625209800        17.4320614645
       18.5360781100        14.3789566857
        7.2940532800         7.6571902731
        2.9433249000         1.9874071930
p   1 1.0 
        1.0404970800         1.4979287975
p   1 1.0 
        0.3845641500        -0.4316692201
p   1 1.0 
        0.1306964300         0.1120133392
d   2 1.0 
        4.6100000000         7.5524217504
        1.0110000000         2.6539585854
d   1 1.0 
        0.3390000000         0.4293579962
f   1 1.0 
        0.7060000000         2.6050175686

  2 0
s   7 1.0 
    69507.9909450000         4.1142286333
    10426.1568800000         4.2286655222
     2373.2334061000         5.8493829067
      671.5642007100         8.3358677251
      218.4199979000        10.0089622684
       77.5722497100         8.2783277553
       28.8888152800         2.9822029766
s   1 1.0 
      127.1052718500        26.9794296956
s   1 1.0 
       39.3395829600        11.1952141621
s   1 1.0 
        7.6740680000         3.2860890225
s   1 1.0 
        3.8745627600        -1.9682357562
s   1 1.0 
        1.8385832600         1.1253110111
s   1 1.0 
        0.5022905800        -0.4252324193
s   1 1.0 
        0.1796272300         0.1966478587
p   6 1.0 
      666.5042328400        13.1758105786
      157.6424169000        16.0544655669
       50.2625209800        17.4320614645
       18.5360781100        14.3789566857
        7.2940532800         7.6571902731
        2.9433249000         1.9874071930
p   1 1.0 
        1.0404970800         1.4979287975
p   1 1.0 
        0.3845641500        -0.4316692201
p   1 1.0 
        0.1306964300         0.1120133392
d   2 1.0 
        4.6100000000         7.5524217504
        1.0110000000         2.6539585854
d   1 1.0 
        0.3390000000         0.4293579962
f   1 1.0 
        0.7060000000         2.6050175686

[5D]
[9G]
[MO]
 Sym=     1a
 Ene= -1.05264709339690E+02
 Spin= Alpha
 Occup= 2.000000
  1      -0.664323456390
  2      -0.009423238086
  3      -0.021369999219
  4      -0.036271643625
  5      -0.016926568696
  6      -0.006463305595
  7      -0.001860045383
  8      -0.001106314407
  9       0.000040920556
 10      -0.000000000000
 11       0.000000000000
 12      -0.000000772259
 13       0.000000000000
 14      -0.000000000000
 15       0.000010721796
 16       0.000000000000
 17      -0.000000000000
 18       0.000374871622
 19       0.000000000000
 20       0.000000000000
 21      -0.000009021429
 22       0.000000000000
 23      -0.000000000000
 24       0.000015625574
 25      -0.000000000000
 26       0.000053124173
 27      -0.000000000000
 28       0.000000000000
 29      -0.000092013767
 30      -0.000000000000
 31      -0.000000000000
 32       0.000012942510
 33      -0.000000000000
 34       0.000000000000
 35      -0.000000000000
 36       0.000016708708
 37      -0.000000000000
 38       0.664303325403
 39       0.009422952701
 40       0.021369351291
 41       0.036270547548
 42       0.016926062997
 43       0.006463117429
 44       0.001859999255
 45       0.001106300645
 46       0.000040919016
 47      -0.000000000000
 48      -0.000000000000
 49      -0.000000771107
 50       0.000000000000
 51      -0.000000000000
 52       0.000010721175
 53       0.000000000000
 54      -0.000000000000
 55       0.000374870738
 56       0.000000000000
 57      -0.000000000000
 58       0.000009021001
 59       0.000000000000
 60       0.000000000000
 61      -0.000015624832
 62      -0.000000000000
 63      -0.000053123196
 64      -0.000000000000
 65      -0.000000000000
 66       0.000092012074
 67      -0.000000000000
 68       0.000000000000
 69       0.000012943116
 70      -0.000000000000
 71      -0.000000000000
 72       0.000000000000
 73       0.000016709490
 74       0.000000000000
 Sym=     1a
 Ene= -1.05264708306497E+02
 Spin= Alpha
 Occup= 2.000000
  1      -0.664307057975
  2      -0.009417490295
  3      -0.021381093125
  4      -0.036169817643
  5      -0.016687923175
  6      -0.006209520265
  7      -0.001522253513
  8      -0.000454162586
  9       0.000050852191
 10       0.000000000000
 11       0.000000000000
 12      -0.000038209801
 13      -0.000000000000
 14      -0.000000000000
 15       0.000020294710
 16      -0.000000000000
 17       0.000000000000
 18       0.000029067106
 19      -0.000000000000
 20      -0.000000000000
 21      -0.000014172692
 22      -0.000000000000
 23      -0.000000000000
 24       0.000024547823
 25      -0.000000000000
 26       0.000032279900
 27       0.000000000000
 28      -0.000000000000
 29      -0.000055910427
 30       0.000000000000
 31      -0.000000000000
 32      -0.000020012443
 33      -0.000000000000
 34      -0.000000000000
 35      -0.000000000000
 36      -0.000025835953
 37      -0.000000000000
 38      -0.664327188849
 39      -0.009417775846
 40      -0.021381740698
 41      -0.036170916768
 42      -0.016688436081
 43      -0.006209716101
 44      -0.001522309834
 45      -0.000454196026
 46      -0.000050853427
 47      -0.000000000000
 48       0.000000000000
 49       0.000038209803
 50      -0.000000000000
 51       0.000000000000
 52      -0.000020295072
 53      -0.000000000000
 54       0.000000000000
 55      -0.000029078430
 56       0.000000000000
 57       0.000000000000
 58      -0.000014172961
 59      -0.000000000000
 60       0.000000000000
 61       0.000024548289
 62      -0.000000000000
 63       0.000032281492
 64       0.000000000000
 65      -0.000000000000
 66      -0.000055913184
 67       0.000000000000
 68      -0.000000000000
 69       0.000020012044
 70       0.000000000000
 71       0.000000000000
 72       0.000000000000
 73       0.000025835438
 74       0.000000000000
 Sym=     1a
 Ene= -1.06848376415845E+01
 Spin= Alpha
 Occup= 2.000000
  1      -0.195945495349
  2      -0.021942780920
  3      -0.084445239756
  4       0.201241174446
  5      -0.392265756517
  6       0.201046585721
  7      -0.010310238696
  8      -0.001165264243
  9      -0.003310707127
 10       0.000000000000
 11       0.000000000000
 12      -0.000929754986
 13      -0.000000000000
 14       0.000000000000
 15       0.000060221171
 16      -0.000000000000
 17       0.000000000000
 18       0.000103124888
 19      -0.000000000000
 20      -0.000000000000
 21      -0.000446225554
 22       0.000000000000
 23       0.000000000000
 24       0.000772885331
 25      -0.000000000000
 26       0.000293442218
 27       0.000000000000
 28      -0.000000000000
 29      -0.000508256830
 30       0.000000000000
 31      -0.000000000000
 32      -0.000013528696
 33      -0.000000000000
 34      -0.000000000000
 35      -0.000000000000
 36      -0.000017465472
 37      -0.000000000000
 38      -0.195945494397
 39      -0.021942780813
 40      -0.084445239345
 41       0.201241173468
 42      -0.392265754607
 43       0.201046584746
 44      -0.010310238640
 45      -0.001165264223
 46       0.003310707111
 47       0.000000000000
 48       0.000000000000
 49       0.000929754981
 50      -0.000000000000
 51       0.000000000000
 52      -0.000060221176
 53      -0.000000000000
 54      -0.000000000000
 55      -0.000103124880
 56       0.000000000000
 57       0.000000000000
 58      -0.000446225552
 59      -0.000000000000
 60       0.000000000000
 61       0.000772885327
 62      -0.000000000000
 63       0.000293442214
 64       0.000000000000
 65      -0.000000000000
 66      -0.000508256824
 67       0.000000000000
 68       0.000000000000
 69       0.000013528696
 70      -0.000000000000
 71       0.000000000000
 72       0.000000000000
 73       0.000017465472
 74      -0.000000000000
 Sym=     1a
 Ene= -1.06846770366910E+01
 Spin= Alpha
 Occup= 2.000000
  1      -0.195955315146
  2      -0.021947154119
  3      -0.084442249303
  4       0.201149251248
  5      -0.392595800579
  6       0.200694466917
  7      -0.011382493903
  8      -0.004268680574
  9      -0.003348379561
 10      -0.000000000000
 11       0.000000000000
 12      -0.001064758576
 13       0.000000000000
 14       0.000000000000
 15      -0.001012227953
 16       0.000000000000
 17      -0.000000000000
 18       0.001536114972
 19       0.000000000000
 20       0.000000000000
 21      -0.000427807963
 22      -0.000000000000
 23       0.000000000000
 24       0.000740985127
 25       0.000000000000
 26       0.000680449426
 27      -0.000000000000
 28      -0.000000000000
 29      -0.001178572978
 30      -0.000000000000
 31      -0.000000000000
 32      -0.000060903137
 33       0.000000000000
 34       0.000000000000
 35      -0.000000000000
 36      -0.000078625611
 37      -0.000000000000
 38       0.195955316098
 39       0.021947154226
 40       0.084442249714
 41      -0.201149252226
 42       0.392595802486
 43      -0.200694467895
 44       0.011382493953
 45       0.004268680580
 46      -0.003348379577
 47       0.000000000000
 48      -0.000000000000
 49      -0.001064758580
 50      -0.000000000000
 51      -0.000000000000
 52      -0.001012227952
 53      -0.000000000000
 54       0.000000000000
 55       0.001536114973
 56      -0.000000000000
 57      -0.000000000000
 58       0.000427807965
 59      -0.000000000000
 60      -0.000000000000
 61      -0.000740985131
 62       0.000000000000
 63      -0.000680449428
 64      -0.000000000000
 65       0.000000000000
 66       0.001178572981
 67      -0.000000000000
 68       0.000000000000
 69      -0.000060903137
 70      -0.000000000000
 71      -0.000000000000
 72       0.000000000000
 73      -0.000078625611
 74       0.000000000000
 Sym=     1a
 Ene= -8.08711954156954E+00
 Spin= Alpha
 Occup= 2.000000
  1      -0.001164037878
  2      -0.000137767625
  3      -0.000527492500
  4       0.001555803082
  5      -0.002448559862
  6       0.000779365606
  7       0.000771593684
  8       0.000321307220
  9       0.686671087301
 10      -0.000000000006
 11       0.000000000144
 12       0.043779778522
 13      -0.000000000000
 14       0.000000000009
 15       0.003947405481
 16      -0.000000000000
 17       0.000000000001
 18       0.001407013661
 19      -0.000000000000
 20       0.000000000000
 21       0.000447968262
 22      -0.000000000000
 23       0.000000000000
 24      -0.000775903791
 25       0.000000000000
 26      -0.000053480956
 27       0.000000000000
 28      -0.000000000000
 29       0.000092631734
 30      -0.000000000000
 31      -0.000000000000
 32      -0.000117243838
 33       0.000000000000
 34       0.000000000000
 35       0.000000000000
 36      -0.000151361144
 37       0.000000000000
 38      -0.001164037866
 39      -0.000137767624
 40      -0.000527492495
 41       0.001555803067
 42      -0.002448559834
 43       0.000779365602
 44       0.000771593664
 45       0.000321307175
 46      -0.686671079960
 47      -0.000000000003
 48       0.000000000023
 49      -0.043779778046
 50      -0.000000000000
 51       0.000000000001
 52      -0.003947405409
 53      -0.000000000000
 54       0.000000000000
 55      -0.001407013666
 56      -0.000000000000
 57       0.000000000000
 58       0.000447968257
 59       0.000000000000
 60       0.000000000000
 61      -0.000775903783
 62      -0.000000000000
 63      -0.000053480943
 64       0.000000000000
 65      -0.000000000000
 66       0.000092631711
 67       0.000000000000
 68      -0.000000000000
 69       0.000117243841
 70      -0.000000000000
 71       0.000000000000
 72      -0.000000000000
 73       0.000151361148
 74       0.000000000000
 Sym=     1a
 Ene= -8.08685558575740E+00
 Spin= Alpha
 Occup= 2.000000
  1       0.001124875443
  2       0.000136372417
  3       0.000502175990
  4      -0.001404253372
  5       0.002672531037
  6      -0.000352362448
  7      -0.001867549320
  8      -0.004200654049
  9      -0.686727608934
 10      -0.000000000001
 11      -0.000000000155
 12      -0.044601965971
 13      -0.000000000000
 14      -0.000000000009
 15      -0.006755079979
 16      -0.000000000000
 17      -0.000000000001
 18       0.000384245736
 19      -0.000000000000
 20      -0.000000000000
 21      -0.000468063451
 22       0.000000000000
 23      -0.000000000000
 24       0.000810709678
 25       0.000000000000
 26       0.001248932369
 27      -0.000000000000
 28       0.000000000000
 29      -0.002163214319
 30       0.000000000000
 31      -0.000000000000
 32      -0.000274371794
 33       0.000000000000
 34       0.000000000000
 35      -0.000000000000
 36      -0.000354212463
 37       0.000000000000
 38      -0.001124875456
 39      -0.000136372419
 40      -0.000502175995
 41       0.001404253388
 42      -0.002672531065
 43       0.000352362456
 44       0.001867549329
 45       0.004200654053
 46      -0.686727616275
 47      -0.000000000000
 48       0.000000000157
 49      -0.044601966439
 50      -0.000000000000
 51       0.000000000009
 52      -0.006755080021
 53      -0.000000000000
 54       0.000000000001
 55       0.000384245721
 56      -0.000000000000
 57       0.000000000000
 58       0.000468063455
 59       0.000000000000
 60       0.000000000000
 61      -0.000810709687
 62       0.000000000000
 63      -0.001248932370
 64      -0.000000000000
 65      -0.000000000000
 66       0.002163214320
 67       0.000000000000
 68      -0.000000000000
 69      -0.000274371793
 70      -0.000000000000
 71      -0.000000000000
 72      -0.000000000000
 73      -0.000354212462
 74       0.000000000000
 Sym=     1a
 Ene= -8.08408823398902E+00
 Spin= Alpha
 Occup= 2.000000
  1       0.000000000000
  2       0.000000000000
  3       0.000000000000
  4      -0.000000000000
  5       0.000000000000
  6      -0.000000000000
  7      -0.000000000000
  8       0.000000000000
  9      -0.000000000010
 10       0.678847080567
 11       0.111622934169
 12      -0.000000000001
 13       0.040347498191
 14       0.006634345590
 15      -0.000000000000
 16       0.003017842184
 17       0.000496224278
 18      -0.000000000000
 19       0.000918279536
 20       0.000150992854
 21      -0.000000000000
 22      -0.000113912589
 23       0.000000000000
 24       0.000000000000
 25      -0.000692771864
 26      -0.000000000000
 27       0.000040494586
 28       0.000000000000
 29       0.000000000000
 30       0.000246272225
 31      -0.000019411908
 32       0.000000000000
 33      -0.000048196020
 34       0.000025060666
 35      -0.000000000000
 36       0.000000000000
 37      -0.000186662382
 38       0.000000000000
 39       0.000000000000
 40       0.000000000000
 41      -0.000000000000
 42       0.000000000000
 43      -0.000000000000
 44      -0.000000000000
 45      -0.000000000000
 46       0.000000000009
 47       0.678846917618
 48       0.111622884797
 49       0.000000000001
 50       0.040347488487
 51       0.006634342649
 52       0.000000000000
 53       0.003017841398
 54       0.000496224040
 55       0.000000000000
 56       0.000918279276
 57       0.000150992775
 58      -0.000000000000
 59       0.000113912537
 60      -0.000000000000
 61       0.000000000000
 62       0.000692771693
 63       0.000000000000
 64      -0.000040494549
 65       0.000000000000
 66       0.000000000000
 67      -0.000246272103
 68      -0.000019411909
 69      -0.000000000000
 70      -0.000048196020
 71       0.000025060666
 72      -0.000000000000
 73      -0.000000000000
 74      -0.000186662382
 Sym=     1a
 Ene= -8.08408823398736E+00
 Spin= Alpha
 Occup= 2.000000
  1       0.000000000000
  2       0.000000000000
  3       0.000000000000
  4      -0.000000000000
  5       0.000000000000
  6      -0.000000000000
  7      -0.000000000000
  8       0.000000000000
  9      -0.000000000082
 10      -0.111622917998
 11       0.678847135573
 12      -0.000000000005
 13      -0.006634344626
 14       0.040347501467
 15      -0.000000000000
 16      -0.000496224200
 17       0.003017842450
 18      -0.000000000000
 19      -0.000150992828
 20       0.000918279624
 21      -0.000000000000
 22      -0.000692771921
 23      -0.000000000000
 24       0.000000000000
 25       0.000113912572
 26      -0.000000000000
 27       0.000246272267
 28       0.000000000000
 29       0.000000000000
 30      -0.000040494574
 31      -0.000118055656
 32       0.000000000000
 33       0.000007924878
 34       0.000152409196
 35       0.000000000000
 36       0.000000000000
 37       0.000030692922
 38       0.000000000000
 39       0.000000000000
 40       0.000000000000
 41      -0.000000000000
 42       0.000000000000
 43      -0.000000000000
 44      -0.000000000000
 45      -0.000000000000
 46       0.000000000084
 47      -0.111622900968
 48       0.678846862612
 49       0.000000000005
 50      -0.006634343612
 51       0.040347485211
 52       0.000000000001
 53      -0.000496224118
 54       0.003017841133
 55       0.000000000000
 56      -0.000150992801
 57       0.000918279188
 58      -0.000000000000
 59       0.000692771636
 60       0.000000000000
 61       0.000000000000
 62      -0.000113912554
 63       0.000000000000
 64      -0.000246272062
 65      -0.000000000000
 66      -0.000000000000
 67       0.000040494561
 68      -0.000118055656
 69      -0.000000000000
 70       0.000007924878
 71       0.000152409197
 72       0.000000000000
 73      -0.000000000000
 74       0.000030692922
 Sym=     1a
 Ene= -8.08408147615492E+00
 Spin= Alpha
 Occup= 2.000000
  1       0.000000000000
  2       0.000000000000
  3       0.000000000000
  4      -0.000000000000
  5       0.000000000000
  6      -0.000000000000
  7      -0.000000000000
  8      -0.000000000000
  9      -0.000000000078
 10       0.640142880851
 11       0.252040098149
 12      -0.000000000005
 13       0.038123947954
 14       0.015010342024
 15      -0.000000000001
 16       0.003088288658
 17       0.001215935697
 18       0.000000000000
 19       0.001021319181
 20       0.000402118644
 21      -0.000000000000
 22      -0.000263206647
 23       0.000000000000
 24       0.000000000000
 25      -0.000668504188
 26       0.000000000000
 27       0.000189427288
 28      -0.000000000000
 29      -0.000000000000
 30       0.000481115999
 31       0.000000337390
 32      -0.000000000000
 33       0.000000349831
 34      -0.000000435569
 35       0.000000000000
 36      -0.000000000000
 37       0.000001354889
 38      -0.000000000000
 39      -0.000000000000
 40      -0.000000000000
 41       0.000000000000
 42      -0.000000000000
 43       0.000000000000
 44       0.000000000000
 45       0.000000000000
 46      -0.000000000036
 47      -0.640143034653
 48      -0.252040208721
 49      -0.000000000002
 50      -0.038123957095
 51      -0.015010348596
 52      -0.000000000000
 53      -0.003088289342
 54      -0.001215936189
 55       0.000000000000
 56      -0.001021319389
 57      -0.000402118793
 58       0.000000000000
 59      -0.000263206760
 60      -0.000000000000
 61      -0.000000000000
 62      -0.000668504345
 63      -0.000000000000
 64       0.000189427328
 65       0.000000000000
 66       0.000000000000
 67       0.000481116055
 68      -0.000000337371
 69       0.000000000000
 70      -0.000000349820
 71       0.000000435544
 72      -0.000000000000
 73      -0.000000000000
 74      -0.000001354847
 Sym=     1a
 Ene= -8.08408147615413E+00
 Spin= Alpha
 Occup= 2.000000
  1       0.000000000000
  2       0.000000000000
  3       0.000000000000
  4      -0.000000000000
  5       0.000000000001
  6      -0.000000000000
  7      -0.000000000001
  8      -0.000000000001
  9      -0.000000000202
 10      -0.252040125538
 11       0.640142830483
 12      -0.000000000013
 13      -0.015010343652
 14       0.038123944960
 15      -0.000000000002
 16      -0.001215935819
 17       0.003088288434
 18      -0.000000000000
 19      -0.000402118681
 20       0.001021319113
 21      -0.000000000000
 22      -0.000668504136
 23      -0.000000000000
 24       0.000000000000
 25       0.000263206675
 26       0.000000000000
 27       0.000481115981
 28       0.000000000000
 29      -0.000000000000
 30      -0.000189427298
 31       0.000000856916
 32      -0.000000000000
 33      -0.000000137737
 34      -0.000001106274
 35      -0.000000000000
 36      -0.000000000000
 37      -0.000000533453
 38      -0.000000000000
 39      -0.000000000000
 40      -0.000000000000
 41       0.000000000000
 42      -0.000000000000
 43       0.000000000000
 44       0.000000000000
 45       0.000000000001
 46      -0.000000000088
 47       0.252040181333
 48      -0.640143085021
 49      -0.000000000006
 50       0.015010346968
 51      -0.038123960089
 52      -0.000000000001
 53       0.001215936067
 54      -0.003088289565
 55       0.000000000000
 56       0.000402118756
 57      -0.001021319457
 58       0.000000000000
 59      -0.000668504396
 60       0.000000000000
 61      -0.000000000000
 62       0.000263206732
 63      -0.000000000000
 64       0.000481116073
 65      -0.000000000000
 66       0.000000000000
 67      -0.000189427318
 68      -0.000000856872
 69      -0.000000000000
 70       0.000000137733
 71       0.000001106216
 72       0.000000000000
 73      -0.000000000000
 74       0.000000533438
 Sym=     1a
 Ene= -1.22237929149173E+00
 Spin= Alpha
 Occup= 2.000000
  1      -0.055609725083
  2      -0.006872378276
  3      -0.026950534093
  4       0.068101428610
  5      -0.216545764519
  6       0.128374107033
  7       0.476383068331
  8      -0.283682095469
  9      -0.041616222458
 10      -0.000000000000
 11      -0.000000000000
 12       0.028306392107
 13       0.000000000000
 14       0.000000000000
 15      -0.080101400065
 16      -0.000000000000
 17      -0.000000000000
 18       0.009618963254
 19      -0.000000000000
 20      -0.000000000000
 21       0.008457396881
 22       0.000000000000
 23      -0.000000000001
 24      -0.014648641093
 25       0.000000000000
 26       0.010140981571
 27       0.000000000000
 28      -0.000000000004
 29      -0.017564695305
 30      -0.000000000000
 31       0.000000000000
 32      -0.005985243810
 33      -0.000000000000
 34      -0.000000000000
 35       0.000000000002
 36      -0.007726916528
 37       0.000000000000
 38      -0.055609725083
 39      -0.006872378276
 40      -0.026950534092
 41       0.068101428610
 42      -0.216545764519
 43       0.128374107033
 44       0.476383068329
 45      -0.283682095468
 46       0.041616222458
 47       0.000000000000
 48      -0.000000000000
 49      -0.028306392107
 50      -0.000000000000
 51       0.000000000000
 52       0.080101400065
 53       0.000000000000
 54      -0.000000000000
 55      -0.009618963254
 56       0.000000000000
 57       0.000000000000
 58       0.008457396881
 59      -0.000000000000
 60      -0.000000000001
 61      -0.014648641093
 62      -0.000000000000
 63       0.010140981571
 64       0.000000000000
 65      -0.000000000004
 66      -0.017564695305
 67       0.000000000000
 68      -0.000000000000
 69       0.005985243810
 70       0.000000000000
 71       0.000000000000
 72      -0.000000000002
 73       0.007726916528
 74      -0.000000000000
 Sym=     1a
 Ene= -1.02084982108587E+00
 Spin= Alpha
 Occup= 2.000000
  1      -0.060077237340
  2      -0.007504817145
  3      -0.029020496450
  4       0.071245053282
  5      -0.246097941787
  6       0.126973835655
  7       0.520486533176
  8      -0.361655556564
  9       0.034956277806
 10      -0.000000000000
 11      -0.000000000000
 12      -0.030377133737
 13       0.000000000000
 14       0.000000000000
 15       0.063708195358
 16       0.000000000000
 17      -0.000000000000
 18      -0.018940644264
 19      -0.000000000000
 20      -0.000000000000
 21      -0.004563211190
 22      -0.000000000000
 23       0.000000000003
 24       0.007903713616
 25       0.000000000000
 26      -0.006542359562
 27       0.000000000000
 28       0.000000000003
 29       0.011331699147
 30      -0.000000000000
 31       0.000000000000
 32       0.001810228866
 33      -0.000000000000
 34      -0.000000000000
 35       0.000000000000
 36       0.002336995418
 37       0.000000000000
 38       0.060077237340
 39       0.007504817145
 40       0.029020496450
 41      -0.071245053282
 42       0.246097941788
 43      -0.126973835656
 44      -0.520486533177
 45       0.361655556565
 46       0.034956277806
 47      -0.000000000000
 48      -0.000000000000
 49      -0.030377133737
 50      -0.000000000000
 51       0.000000000000
 52       0.063708195358
 53      -0.000000000000
 54      -0.000000000000
 55      -0.018940644264
 56      -0.000000000000
 57      -0.000000000000
 58       0.004563211190
 59      -0.000000000000
 60      -0.000000000003
 61      -0.007903713616
 62      -0.000000000000
 63       0.006542359562
 64       0.000000000000
 65      -0.000000000004
 66      -0.011331699147
 67       0.000000000000
 68       0.000000000000
 69       0.001810228866
 70       0.000000000000
 71       0.000000000000
 72       0.000000000000
 73       0.002336995418
 74      -0.000000000000
 Sym=     1a
 Ene= -5.95713757236239E-01
 Spin= Alpha
 Occup= 2.000000
  1       0.015987534717
  2       0.002093597500
  3       0.007563942663
  4      -0.015823302240
  5       0.079449760341
  6      -0.017439963322
  7      -0.128346180600
  8       0.169907377486
  9      -0.190801821164
 10      -0.000000000000
 11      -0.000000000001
 12       0.161177917427
 13       0.000000000000
 14       0.000000000001
 15      -0.388593899393
 16      -0.000000000000
 17      -0.000000000002
 18       0.159471432469
 19       0.000000000000
 20       0.000000000001
 21       0.018036859340
 22      -0.000000000000
 23      -0.000000000006
 24      -0.031240756750
 25       0.000000000000
 26       0.025500279589
 27      -0.000000000000
 28      -0.000000000011
 29      -0.044167779781
 30      -0.000000000000
 31      -0.000000000000
 32      -0.008630633941
 33      -0.000000000000
 34       0.000000000000
 35       0.000000000001
 36      -0.011142100501
 37       0.000000000000
 38       0.015987534717
 39       0.002093597500
 40       0.007563942663
 41      -0.015823302240
 42       0.079449760342
 43      -0.017439963323
 44      -0.128346180601
 45       0.169907377486
 46       0.190801821164
 47      -0.000000000000
 48      -0.000000000001
 49      -0.161177917427
 50       0.000000000000
 51       0.000000000001
 52       0.388593899393
 53      -0.000000000000
 54      -0.000000000001
 55      -0.159471432468
 56       0.000000000000
 57       0.000000000001
 58       0.018036859340
 59       0.000000000000
 60      -0.000000000006
 61      -0.031240756750
 62       0.000000000000
 63       0.025500279589
 64       0.000000000000
 65      -0.000000000011
 66      -0.044167779781
 67       0.000000000000
 68      -0.000000000000
 69       0.008630633941
 70       0.000000000000
 71       0.000000000000
 72      -0.000000000001
 73       0.011142100501
 74      -0.000000000000
 Sym=     1a
 Ene= -5.67556005861246E-01
 Spin= Alpha
 Occup= 2.000000
  1      -0.000000000000
  2      -0.000000000000
  3      -0.000000000000
  4       0.000000000000
  5      -0.000000000000
  6      -0.000000000000
  7       0.000000000000
  8      -0.000000000000
  9       0.000000000000
 10      -0.188872483755
 11      -0.032354272810
 12      -0.000000000000
 13       0.171310140958
 14       0.029345804775
 15       0.000000000000
 16      -0.381699296767
 17      -0.065385930937
 18      -0.000000000000
 19       0.200921952858
 20       0.034418373429
 21      -0.000000000000
 22      -0.002632467995
 23       0.000000000000
 24       0.000000000000
 25      -0.015367391241
 26      -0.000000000000
 27      -0.004536354673
 28      -0.000000000000
 29       0.000000000000
 30      -0.026481589599
 31      -0.001284571446
 32       0.000000000000
 33      -0.003061397247
 34       0.001658374606
 35       0.000000000000
 36       0.000000000000
 37      -0.011856740554
 38      -0.000000000000
 39      -0.000000000000
 40      -0.000000000000
 41       0.000000000000
 42      -0.000000000000
 43       0.000000000000
 44       0.000000000000
 45      -0.000000000000
 46      -0.000000000000
 47      -0.188872483754
 48      -0.032354272809
 49       0.000000000000
 50       0.171310140957
 51       0.029345804774
 52      -0.000000000000
 53      -0.381699296765
 54      -0.065385930936
 55       0.000000000000
 56       0.200921952857
 57       0.034418373428
 58      -0.000000000000
 59       0.002632467995
 60       0.000000000000
 61       0.000000000000
 62       0.015367391241
 63      -0.000000000000
 64       0.004536354674
 65      -0.000000000000
 66      -0.000000000000
 67       0.026481589599
 68      -0.001284571446
 69      -0.000000000000
 70      -0.003061397247
 71       0.001658374606
 72      -0.000000000000
 73       0.000000000000
 74      -0.011856740554
 Sym=     1a
 Ene= -5.67556005858975E-01
 Spin= Alpha
 Occup= 2.000000
  1      -0.000000000000
  2      -0.000000000000
  3      -0.000000000000
  4       0.000000000000
  5      -0.000000000000