[Molden Format]
[Title]
 Molden file created by orca_2mkl for BaseName=/data01/Nikolayandreadi/heavy/3/Ac_OH_3

[Atoms] AU
Ac   1  89          0.0161949530         0.0119808637        -0.0168714749 
O    2   8         -1.5434035843        -2.2202656909        -3.2217638501 
O    3   8         -1.5548836705         3.9036242824         0.2553341260 
O    4   8          4.2092950434        -0.1421962224         0.2685036275 
H    5   1         -2.1185870865         5.6239742629         0.1600994878 
H    6   1         -2.1024223692        -3.0215322484        -4.7488194136 
H    7   1          6.0191046592        -0.0877910070         0.1786962827 
[GTO]
  1 0
s   9 1.0 
 55109808.7412440032     14257.7713661335
 25049913.0642019995     -5151.0918968321
 11386324.1200920008      8141.6734319397
  5175601.8727690000       367.7957557878
  2352546.3058039998      3850.3989281956
  1069339.2299110000      1838.0599913906
   486063.2863230000      2498.2579619160
   220937.8574200000      1918.4911854425
   100426.2988270000      1976.3677811030
s   1 1.0 
    45648.3176490000      2225.7617489804
s   1 1.0 
    20749.2352950000      1232.1445599454
s   1 1.0 
     9431.4705890000       682.0946659463
s   1 1.0 
     4287.0320860000       377.5962240397
s   1 1.0 
     1948.6509480000       209.0309681559
s   1 1.0 
      885.7504310000       115.7160555982
s   1 1.0 
      402.6138320000        64.0584772366
s   1 1.0 
      183.0062870000        35.4617039283
s   1 1.0 
       83.1846760000        19.6310075135
s   1 1.0 
       37.8112160000        10.8673980720
s   1 1.0 
       17.1869170000         6.0160103808
s   1 1.0 
        7.8122350000         3.3303629495
s   1 1.0 
        3.5510160000         1.8436333860
s   1 1.0 
        1.6140980000         1.0206045891
s   1 1.0 
        0.7336810000         0.5649897208
s   1 1.0 
        0.3334910000         0.3127686249
s   1 1.0 
        0.1515870000         0.1731436469
s   1 1.0 
        0.0689030000         0.0958492438
s   1 1.0 
        0.0313200000         0.0530611193
s   1 1.0 
        0.0142360000         0.0293731874
p   8 1.0 
   782789.9000960001    105400.6380222760
   326162.4583730000      9339.8703413204
   135901.0243220000     31114.7166186033
    56625.4268010000     15807.4263964350
    23593.9278340000     15422.4005191925
     9830.8032640000     12674.9472511059
     4096.1680270000     12080.1456614186
     1706.7366780000     11164.2062033065
p   1 1.0 
      711.1402820000      5234.6082754400
p   1 1.0 
      296.3084510000      1752.3471056201
p   1 1.0 
      123.4618550000       586.6189460208
p   1 1.0 
       51.4424390000       196.3776356850
p   1 1.0 
       21.4343500000        65.7397404951
p   1 1.0 
        8.9309790000        22.0071560566
p   1 1.0 
        3.7212410000         7.3671554630
p   1 1.0 
        1.5505170000         2.4662423617
p   1 1.0 
        0.6460490000         0.8256042333
p   1 1.0 
        0.2691870000         0.2763806863
p   1 1.0 
        0.1121610000         0.0925214496
p   1 1.0 
        0.0467340000         0.0309728579
d   7 1.0 
    37896.8365590000     43506.3623126937
    15158.7346230000     21857.0905485274
     6063.4938490000     24630.8084267633
     2425.3975400000     23119.8187386178
      970.1590160000     25018.7518608141
      388.0636060000     22853.9144711695
      155.2254430000     15499.7964819019
d   1 1.0 
       62.0901770000      3915.2559196064
d   1 1.0 
       24.8360710000       787.7077997530
d   1 1.0 
        9.9344280000       158.4784080703
d   1 1.0 
        3.9737710000        31.8841649022
d   1 1.0 
        1.5895090000         6.4147586096
d   1 1.0 
        0.6358030000         1.2905789757
d   1 1.0 
        0.2543210000         0.2596503863
d   1 1.0 
        0.1017290000         0.0522394313
d   1 1.0 
        0.0406910000         0.0105097460
f   6 1.0 
     3860.7881580000     45311.1110738893
     1484.9185220000     38972.8076748077
      571.1225090000     44376.6887792609
      219.6625030000     42822.5096425147
       84.4855780000     30269.0683434645
       32.4944530000     11761.6594792960
f   1 1.0 
       12.4978670000      1674.4834181961
f   1 1.0 
        4.8068720000       195.0701571938
f   1 1.0 
        1.8487970000        22.7248403933
f   1 1.0 
        0.7110760000         2.6473485595
f   1 1.0 
        0.2734910000         0.3084053601
f   1 1.0 
        0.1051890000         0.0359280225

  2 0
s   6 1.0 
    27032.3826310000         1.4645050749
     4052.3871392000         1.8244031008
      922.3272271000         2.8547160967
      261.2407098900         4.3654874290
       85.3546413500         5.8940772662
       31.0350352400         6.2963020147
s   1 1.0 
       12.2608607300         4.6698272139
s   1 1.0 
        4.9987076000         2.3826123703
s   1 1.0 
        1.1703108200         0.8019291632
s   1 1.0 
        0.4647474100        -0.4011648063
s   1 1.0 
        0.1850453600         0.2010799377
p   4 1.0 
       63.2749548000         3.0898340730
       14.6270493800         3.3923831935
        4.4501223500         2.9482801524
        1.5275799600         1.7113350234
p   1 1.0 
        0.5293511800         0.6436057935
p   1 1.0 
        0.1747842100         0.1610897223
d   1 1.0 
        2.3140000000        12.3767310624
d   1 1.0 
        0.6450000000         1.3234257612
f   1 1.0 
        1.4280000000        12.7097950062

  3 0
s   6 1.0 
    27032.3826310000         1.4645050749
     4052.3871392000         1.8244031008
      922.3272271000         2.8547160967
      261.2407098900         4.3654874290
       85.3546413500         5.8940772662
       31.0350352400         6.2963020147
s   1 1.0 
       12.2608607300         4.6698272139
s   1 1.0 
        4.9987076000         2.3826123703
s   1 1.0 
        1.1703108200         0.8019291632
s   1 1.0 
        0.4647474100        -0.4011648063
s   1 1.0 
        0.1850453600         0.2010799377
p   4 1.0 
       63.2749548000         3.0898340730
       14.6270493800         3.3923831935
        4.4501223500         2.9482801524
        1.5275799600         1.7113350234
p   1 1.0 
        0.5293511800         0.6436057935
p   1 1.0 
        0.1747842100         0.1610897223
d   1 1.0 
        2.3140000000        12.3767310624
d   1 1.0 
        0.6450000000         1.3234257612
f   1 1.0 
        1.4280000000        12.7097950062

  4 0
s   6 1.0 
    27032.3826310000         1.4645050749
     4052.3871392000         1.8244031008
      922.3272271000         2.8547160967
      261.2407098900         4.3654874290
       85.3546413500         5.8940772662
       31.0350352400         6.2963020147
s   1 1.0 
       12.2608607300         4.6698272139
s   1 1.0 
        4.9987076000         2.3826123703
s   1 1.0 
        1.1703108200         0.8019291632
s   1 1.0 
        0.4647474100        -0.4011648063
s   1 1.0 
        0.1850453600         0.2010799377
p   4 1.0 
       63.2749548000         3.0898340730
       14.6270493800         3.3923831935
        4.4501223500         2.9482801524
        1.5275799600         1.7113350234
p   1 1.0 
        0.5293511800         0.6436057935
p   1 1.0 
        0.1747842100         0.1610897223
d   1 1.0 
        2.3140000000        12.3767310624
d   1 1.0 
        0.6450000000         1.3234257612
f   1 1.0 
        1.4280000000        12.7097950062

  5 0
s   3 1.0 
       34.0613410000         0.2556300129
        5.1235746000         0.4613599287
        1.1646626000         0.6811215012
s   1 1.0 
        0.3272304100         0.3083545312
s   1 1.0 
        0.1030724100         0.1296483265
p   1 1.0 
        0.8000000000         1.0784563492

  6 0
s   3 1.0 
       34.0613410000         0.2556300129
        5.1235746000         0.4613599287
        1.1646626000         0.6811215012
s   1 1.0 
        0.3272304100         0.3083545312
s   1 1.0 
        0.1030724100         0.1296483265
p   1 1.0 
        0.8000000000         1.0784563492

  7 0
s   3 1.0 
       34.0613410000         0.2556300129
        5.1235746000         0.4613599287
        1.1646626000         0.6811215012
s   1 1.0 
        0.3272304100         0.3083545312
s   1 1.0 
        0.1030724100         0.1296483265
p   1 1.0 
        0.8000000000         1.0784563492

[5D]
[7F]
[9G]
[MO]
 Sym=     1a
 Ene= -3.93439375462497E+03
 Spin= Alpha
 Occup= 2.000000
  1       0.078450255759
  2       0.061820844416
  3       0.107263355672
  4       0.173848744671
  5       0.263579405592
  6       0.308463265432
  7       0.199489016951
  8       0.034065346901
  9       0.000805586944
 10      -0.000550215227
 11       0.000406081870
 12      -0.000306959070
 13       0.000220378352
 14      -0.000149122555
 15       0.000100125072
 16      -0.000068191298
 17       0.000047328649
 18      -0.000030456820
 19       0.000011939298
 20      -0.000005400324
 21       0.000001352007
 22      -0.000000041811
 23      -0.000000059238
 24       0.000000104200
 25       0.000000010056
 26       0.000000014247
 27      -0.000000025064
 28       0.000000004462
 29       0.000000006320
 30      -0.000000011118
 31       0.000000003939
 32       0.000000005582
 33      -0.000000009818
 34      -0.000000007126
 35      -0.000000010097
 36       0.000000017755
 37       0.000000011738
 38       0.000000016630
 39      -0.000000029245
 40      -0.000000020330
 41      -0.000000028801
 42       0.000000050649
 43       0.000000031858
 44       0.000000045131
 45      -0.000000079363
 46      -0.000000048286
 47      -0.000000068401
 48       0.000000120278
 49       0.000000064540
 50       0.000000091424
 51      -0.000000160751
 52      -0.000000012668
 53      -0.000000017925
 54       0.000000031464
 55      -0.000000360450
 56      -0.000000510735
 57       0.000000898655
 58       0.000000063067
 59       0.000000089356
 60      -0.000000157199
 61       0.000000000624
 62      -0.000000000573
 63      -0.000000000810
 64      -0.000000000116
 65       0.000000000325
 66       0.000000006871
 67      -0.000000006302
 68      -0.000000008928
 69      -0.000000001274
 70       0.000000003583
 71      -0.000000021246
 72       0.000000019491
 73       0.000000027609
 74       0.000000003939
 75      -0.000000011079
 76       0.000000036432
 77      -0.000000033422
 78      -0.000000047342
 79      -0.000000006754
 80       0.000000018999
 81      -0.000000065778
 82       0.000000060343
 83       0.000000085475
 84       0.000000012194
 85      -0.000000034304
 86       0.000000119660
 87      -0.000000109771
 88      -0.000000155490
 89      -0.000000022183
 90       0.000000062404
 91      -0.000000210699
 92       0.000000193282
 93       0.000000273781
 94       0.000000039062
 95      -0.000000109883
 96       0.000000340652
 97      -0.000000312506
 98      -0.000000442657
 99      -0.000000063155
100       0.000000177655
101       0.000000432129
102      -0.000000396443
103      -0.000000561608
104      -0.000000080062
105       0.000000225351
106      -0.000000095391
107       0.000000087507
108       0.000000123966
109       0.000000017674
110      -0.000000049746
111      -0.000000001130
112      -0.000000005595
113      -0.000000008005
114       0.000000001779
115      -0.000000004754
116      -0.000000011898
117       0.000000003220
118       0.000000003514
119       0.000000017021
120       0.000000024359
121      -0.000000005512
122       0.000000014740
123       0.000000036471
124      -0.000000009868
125      -0.000000007713
126      -0.000000036618
127      -0.000000052407
128       0.000000012059
129      -0.000000032264
130      -0.000000079002
131       0.000000021376
132       0.000000015435
133       0.000000072726
134       0.000000104087
135      -0.000000024101
136       0.000000064496
137       0.000000157311
138      -0.000000042562
139      -0.000000030517
140      -0.000000145383
141      -0.000000208066
142       0.000000047734
143      -0.000000127706
144      -0.000000313280
145       0.000000084763
146       0.000000063494
147       0.000000311685
148       0.000000446017
149      -0.000000099795
150       0.000000266803
151       0.000000664818
152      -0.000000179887
153       0.000000033143
154       0.000000056958
155       0.000000082122
156      -0.000000046563
157       0.000000126579
158       0.000000197528
159      -0.000000053325
160      -0.000000017482
161       0.000000078248
162      -0.000000140027
163       0.000000370230
164       0.000000869566
165       0.000000608175
166      -0.000000003144
167      -0.000000004488
168      -0.000000002390
169       0.000000191662
170       0.000000274456
171       0.000000436795
172       0.000000683189
173       0.000000978844
174       0.000001735164
175       0.000000033538
176       0.000000034150
177       0.000000048906
178      -0.000000007256
179       0.000000019759
180      -0.000000172202
181      -0.000000137208
182      -0.000000196654
183       0.000000025037
184      -0.000000067999
185       0.000000024383
186       0.000000004800
187       0.000000006976
188       0.000000003249
189      -0.000000009001
190      -0.000000007701
191       0.000000002068
192      -0.000000017477
193       0.000000078229
194      -0.000000139993
195       0.000000370147
196       0.000000869445
197       0.000000607943
198      -0.000000003167
199       0.000000004358
200       0.000000002625
201       0.000000193143
202      -0.000000515204
203      -0.000000011568
204       0.000000688656
205      -0.000001989542
206       0.000000049590
207      -0.000000036191
208       0.000000000553
209       0.000000000795
210      -0.000000047289
211      -0.000000039710
212       0.000000152110
213      -0.000000012068
214       0.000000027040
215       0.000000211438
216       0.000000153781
217      -0.000000015090
218       0.000000001150
219       0.000000001995
220      -0.000000015561
221      -0.000000011826
222      -0.000000004770
223      -0.000000013539
224      -0.000000017477
225       0.000000078227
226      -0.000000139987
227       0.000000370125
228       0.000000869399
229       0.000000607888
230       0.000000005169
231      -0.000000001492
232       0.000000002644
233      -0.000000550140
234       0.000000006500
235      -0.000000013269
236      -0.000002105266
237      -0.000000028489
238       0.000000043208
239      -0.000000036189
240       0.000000000941
241       0.000000000788
242       0.000000061743
243      -0.000000000303
244       0.000000152264
245       0.000000027963
246      -0.000000002206
247      -0.000000260970
248      -0.000000016859
249      -0.000000015087
250       0.000000001690
251       0.000000001751
252       0.000000019538
253       0.000000000793
254       0.000000002809
255       0.000000014044
256       0.000000058603
257       0.000001520373
258       0.000000478967
259       0.000000115151
260      -0.000000394390
261       0.000000045033
262       0.000000058615
263       0.000001520419
264       0.000000478986
265       0.000000114116
266       0.000000163720
267       0.000000361953
268       0.000000058599
269       0.000001520350
270       0.000000478968
271      -0.000000410176
272      -0.000000025663
273       0.000000043829
 Sym=     1a
 Ene= -7.33547481866599E+02
 Spin= Alpha
 Occup= 2.000000
  1       0.032585828327
  2       0.027686208409
  3       0.047061530853
  4       0.083446577661
  5       0.136668180619
  6       0.181020253158
  7       0.086605662769
  8      -0.351893769452
  9      -0.621414184246
 10      -0.184148181928
 11       0.002405151556
 12      -0.002461674622
 13       0.001420151884
 14      -0.000797353933
 15       0.000481779090
 16      -0.000318738655
 17       0.000218363474
 18      -0.000139328886
 19       0.000054637047
 20      -0.000024688878
 21       0.000006178163
 22      -0.000000278513
 23      -0.000000394557
 24       0.000000694154
 25      -0.000000387049
 26      -0.000000548304
 27       0.000000964669
 28      -0.000000677841
 29      -0.000000960234
 30       0.000001689424
 31      -0.000000448026
 32      -0.000000634688
 33       0.000001116686
 34      -0.000000102191
 35      -0.000000144774
 36       0.000000254664
 37       0.000000022852
 38       0.000000032364
 39      -0.000000056874
 40      -0.000000092557
 41      -0.000000131107
 42       0.000000230538
 43       0.000000141585
 44       0.000000200557
 45      -0.000000352656
 46      -0.000000201555
 47      -0.000000285516
 48       0.000000502016
 49       0.000000281174
 50       0.000000398316
 51      -0.000000700319
 52      -0.000000052038
 53      -0.000000073702
 54       0.000000129363
 55      -0.000001638127
 56      -0.000002320879
 57       0.000004083304
 58       0.000000285632
 59       0.000000404668
 60      -0.000000711897
 61      -0.000000026195
 62       0.000000024011
 63       0.000000034005
 64       0.000000004867
 65      -0.000000013657
 66      -0.000000041569
 67       0.000000038142
 68       0.000000054032
 69       0.000000007703
 70      -0.000000021679
 71      -0.000000129553
 72       0.000000118840
 73       0.000000168341
 74       0.000000024020
 75      -0.000000067561
 76       0.000000156303
 77      -0.000000143380
 78      -0.000000203101
 79      -0.000000028978
 80       0.000000081511
 81      -0.000000273928
 82       0.000000251285
 83       0.000000355946
 84       0.000000050784
 85      -0.000000142855
 86       0.000000532343
 87      -0.000000488338
 88      -0.000000691728
 89      -0.000000098692
 90       0.000000277622
 91      -0.000000941780
 92       0.000000863907
 93       0.000001223716
 94       0.000000174603
 95      -0.000000491154
 96       0.000001527468
 97      -0.000001401214
 98      -0.000001984791
 99      -0.000000283189
100       0.000000796599
101       0.000001970593
102      -0.000001807751
103      -0.000002560857
104      -0.000000365183
105       0.000001027651
106      -0.000000433742
107       0.000000397881
108       0.000000563650
109       0.000000080380
110      -0.000000226195
111       0.000000007376
112       0.000000051657
113       0.000000073832
114      -0.000000012402
115       0.000000032849
116       0.000000099063
117      -0.000000026822
118       0.000000013426
119       0.000000062665
120       0.000000089691
121      -0.000000020933
122       0.000000056030
123       0.000000135996
124      -0.000000036794
125      -0.000000035601
126      -0.000000171435
127      -0.000000245339
128       0.000000055784
129      -0.000000149205
130      -0.000000368059
131       0.000000099586
132       0.000000068679
133       0.000000323384
134       0.000000462835
135      -0.000000107229
136       0.000000286952
137       0.000000699664
138      -0.000000189300
139      -0.000000136071
140      -0.000000647636
141      -0.000000926871
142       0.000000212804
143      -0.000000569339
144      -0.000001396014
145       0.000000377711
146       0.000000284888
147       0.000001399819
148       0.000002003106
149      -0.000000447825
150       0.000001197239
151       0.000002984831
152      -0.000000807638
153       0.000000152195
154       0.000000266111
155       0.000000383574
156      -0.000000214053
157       0.000000581786
158       0.000000913514
159      -0.000000246616
160      -0.000000073971
161       0.000000346998
162      -0.000000631582
163       0.000001696386
164       0.000003969915
165       0.000002749572
166      -0.000000012385
167      -0.000000017672
168      -0.000000006992
169       0.000000863319
170       0.000001236255
171       0.000001968071
172       0.000003099543
173       0.000004440920
174       0.000007875376
175       0.000000154312
176       0.000000157281
177       0.000000225238
178      -0.000000033489
179       0.000000091193
180      -0.000000792978
181      -0.000000635589
182      -0.000000910939
183       0.000000116676
184      -0.000000316923
185       0.000000110522
186       0.000000018733
187       0.000000027293
188       0.000000016230
189      -0.000000044899
190      -0.000000036400
191       0.000000009769
192      -0.000000073955
193       0.000000346927
194      -0.000000631449
195       0.000001696046
196       0.000003969472
197       0.000002748754
198      -0.000000012473
199       0.000000015083
200       0.000000011573
201       0.000000869980
202      -0.000002321137
203      -0.000000051814
204       0.000003124428
205      -0.000009029242
206       0.000000226567
207      -0.000000166617
208       0.000000002382
209       0.000000003805
210      -0.000000217734
211      -0.000000182983
212       0.000000703648
213      -0.000000054237
214       0.000000121377
215       0.000000976838
216       0.000000713328
217      -0.000000068978
218       0.000000006775
219       0.000000005202
220      -0.000000070967
221      -0.000000054250
222      -0.000000026681
223      -0.000000058996
224      -0.000000073956
225       0.000000346925
226      -0.000000631443
227       0.000001696036
228       0.000003969478
229       0.000002748672
230       0.000000018404
231      -0.000000006577
232       0.000000011646
233      -0.000002478549
234       0.000000029107
235      -0.000000059474
236      -0.000009554284
237      -0.000000130157
238       0.000000197606
239      -0.000000166611
240       0.000000004525
241       0.000000003522
242       0.000000284389
243      -0.000000001505
244       0.000000704373
245       0.000000125325
246      -0.000000009962
247      -0.000001207553
248      -0.000000075700
249      -0.000000068995
250       0.000000003536
251       0.000000008097
252       0.000000089350
253       0.000000003370
254       0.000000007183
255       0.000000064168
256       0.000000271622
257       0.000006906783
258       0.000002179453
259       0.000000523297
260      -0.000001792927
261       0.000000205033
262       0.000000271703
263       0.000006906934
264       0.000002179491
265       0.000000518598
266       0.000000744023
267       0.000001645631
268       0.000000271634
269       0.000006906844
270       0.000002179448
271      -0.000001864704
272      -0.000000116844
273       0.000000199567
 Sym=     1a
 Ene= -6.21463719348155E+02
 Spin= Alpha
 Occup= 2.000000
  1      -0.000000000029
  2      -0.000000000024
  3      -0.000000000041
  4      -0.000000000074
  5      -0.000000000116
  6      -0.000000000169
  7      -0.000000000057
  8       0.000000000284
  9       0.000000000612
 10       0.000000000036
 11       0.000000000199
 12      -0.000000000369
 13       0.000000000372
 14      -0.000000000245
 15      -0.000000000618
 16       0.000000004754
 17      -0.000000016018
 18       0.000000021323
 19      -0.000000003466
 20       0.000000000082
 21       0.000000000107
 22       0.057274768404
 23       0.130917362156
 24       0.097429359848
 25       0.099511820765
 26       0.227461855201
 27       0.169278257494
 28       0.151877111403
 29       0.347157244867
 30       0.258356168968
 31       0.081023029304
 32       0.185200596442
 33       0.137827216013
 34       0.002924859118
 35       0.006685576609
 36       0.004975439864
 37       0.001457302517
 38       0.003331068590
 39       0.002478997828
 40      -0.001016667052
 41      -0.002323873818
 42      -0.001729438265
 43       0.000630797617
 44       0.001441861800
 45       0.001073040260
 46      -0.000391574892
 47      -0.000895051123
 48      -0.000666100710
 49       0.000251409103
 50       0.000574662048
 51       0.000427665271
 52      -0.000163902996
 53      -0.000374642460
 54      -0.000278808421
 55       0.000102742072
 56       0.000234845991
 57       0.000174765629
 58      -0.000020092825
 59      -0.000045926515
 60      -0.000034178063
 61      -0.000001097739
 62      -0.000000340182
 63      -0.000000635972
 64      -0.000000162149
 65      -0.000000135488
 66       0.000000538878
 67       0.000000416600
 68       0.000000474782
 69      -0.000000114406
 70       0.000000841607
 71      -0.000001573257
 72      -0.000000902695
 73      -0.000001181849
 74       0.000000090249
 75      -0.000001483309
 76       0.000002833863
 77       0.000001552500
 78       0.000002080956
 79      -0.000000105423
 80       0.000002443627
 81      -0.000005360096
 82      -0.000002892385
 83      -0.000003907309
 84       0.000000165128
 85      -0.000004485077
 86       0.000010738171
 87       0.000005793041
 88       0.000007826836
 89      -0.000000329688
 90       0.000008980624
 91      -0.000022726003
 92      -0.000012295694
 93      -0.000016587826
 94       0.000000725218
 95      -0.000019115677
 96       0.000040690904
 97       0.000022089267
 98       0.000029748937
 99      -0.000001355652
100       0.000034454421
101      -0.000067416915
102      -0.000036707341
103      -0.000049355191
104       0.000002333326
105      -0.000057439636
106       0.000013857519
107       0.000007053272
108       0.000009824234
109      -0.000000097584
110       0.000010279298
111       0.000000073153
112       0.000000002713
113       0.000000006579
114       0.000000013611
115      -0.000000008188
116      -0.000000004987
117       0.000000008683
118      -0.000000021286
119      -0.000000085535
120      -0.000000066823
121       0.000000041801
122      -0.000000114217
123       0.000000126047
124      -0.000000048012
125      -0.000000072689
126       0.000000229451
127       0.000000171266
128      -0.000000138885
129       0.000000327544
130      -0.000000336347
131       0.000000115969
132       0.000000297982
133      -0.000000633109
134      -0.000000466597
135       0.000000403308
136      -0.000000919656
137       0.000000926708
138      -0.000000310373
139      -0.000001021169
140       0.000002327337
141       0.000001719990
142      -0.000001467334
143       0.000003368637
144      -0.000003407417
145       0.000001148260
146       0.000002594616
147      -0.000006893616
148      -0.000005121783
149       0.000004257637
150      -0.000009907863
151       0.000010097133
152      -0.000003443199
153       0.000000659742
154       0.000012639835
155       0.000009721703
156      -0.000006689675
157       0.000017283292
158      -0.000018595705
159       0.000006850734
160      -0.000002114068
161       0.000009979736
162      -0.000018712317
163       0.000049747405
164       0.000084886315
165       0.000141872366
166       0.000002827227
167       0.000004118246
168       0.000005346299
169      -0.000008978646
170      -0.000013460247
171      -0.000016616276
172       0.000009513841
173       0.000015906138
174       0.000010694944
175       0.000002673812
176       0.000003553275
177       0.000004948404
178      -0.000000731282
179       0.000002309270
180      -0.000010664656
181      -0.000014302310
182      -0.000020139235
183       0.000003221253
184      -0.000009580454
185       0.000000015384
186      -0.000002142185
187      -0.000002888433
188       0.000000847765
189      -0.000002692062
190      -0.000000741320
191       0.000000256050
192       0.000001359080
193      -0.000006415695
194       0.000012029556
195      -0.000031980597
196      -0.000054571861
197      -0.000091203719
198      -0.000001689564
199       0.000004353155
200       0.000000594769
201       0.000004627090
202      -0.000014012957
203      -0.000002666405
204      -0.000001697504
205       0.000012750234
206       0.000007955075
207       0.000002433913
208       0.000000096862
209      -0.000000129736
210       0.000002432513
211       0.000003041114
212      -0.000009607578
213      -0.000000572247
214       0.000001137502
215      -0.000010457565
216      -0.000011854689
217      -0.000000034144
218      -0.000000905553
219       0.000001601179
220      -0.000000025921
221      -0.000000068944
222       0.000002448636
223      -0.000000429060
224       0.000000754980
225      -0.000003563969
226       0.000006682511
227      -0.000017765457
228      -0.000030314922
229      -0.000050662717
230       0.000002592009
231       0.000000053423
232       0.000000402850
233      -0.000008187874
234      -0.000001186850
235      -0.000002048027
236       0.000006962026
237       0.000005129004
238       0.000006480250
239       0.000001448367
240       0.000000094547
241       0.000000095072
242      -0.000002064249
243       0.000000778989
244      -0.000005587468
245       0.000000279710
246      -0.000000265869
247       0.000008531449
248      -0.000002194859
249      -0.000000169951
250       0.000001004763
251      -0.000000289377
252       0.000000242664
253      -0.000000019260
254       0.000001299128
255      -0.000000942353
256      -0.000005498441
257       0.000005435753
258       0.000015164048
259       0.000000787866
260       0.000000402128
261      -0.000001002272
262       0.000008552833
263      -0.000008471311
264      -0.000023591422
265      -0.000000933697
266      -0.000001229194
267       0.000001331306
268      -0.000003054417
269       0.000003018693
270       0.000008424068
271       0.000000062903
272       0.000000637589
273      -0.000000471723
 Sym=     1a
 Ene= -6.21463719340747E+02
 Spin= Alpha
 Occup= 2.000000
  1       0.000000000008
  2       0.000000000007
  3       0.000000000011
  4       0.000000000023
  5       0.000000000030
  6       0.000000000057
  7       0.000000000003
  8      -0.000000000039
  9      -0.000000000231
 10       0.000000000016
 11      -0.000000000078
 12       0.000000000079
 13       0.000000000062
 14      -0.000000000329
 15       0.000000000992
 16      -0.000000002988
 17       0.000000007464
 18      -0.000000009638
 19       0.000000003267
 20      -0.000000001089
 21       0.000000000105
 22      -0.152921548942
 23       0.079108613637
 24      -0.016403112218
 25      -0.265692942855
 26       0.137446949149
 27      -0.028499522710
 28      -0.405506364751
 29       0.209774531861
 30      -0.043496593216
 31      -0.216328541883
 32       0.111910003227
 33      -0.023204455951
 34      -0.007809267837
 35       0.004039851649
 36      -0.000837660261