[Molden Format]
[Title]
 Molden file created by orca_2mkl for BaseName=/data01/Nikolayandreadi/heavy/2/AcF3

[Atoms] AU
Ac   1  89          0.6092174700         0.8511326507        -1.4835124939 
F    2   9         -1.6459854777        -2.3563373109        -2.9011434656 
F    3   9         -1.6630723814         3.7004409285         0.5410644969 
F    4   9          4.0224597103        -0.3244073957         0.6023350874 
[GTO]
  1 0
s   9 1.0 
 55109808.7412440032     14257.7713661335
 25049913.0642019995     -5151.0918968321
 11386324.1200920008      8141.6734319397
  5175601.8727690000       367.7957557878
  2352546.3058039998      3850.3989281956
  1069339.2299110000      1838.0599913906
   486063.2863230000      2498.2579619160
   220937.8574200000      1918.4911854425
   100426.2988270000      1976.3677811030
s   1 1.0 
    45648.3176490000      2225.7617489804
s   1 1.0 
    20749.2352950000      1232.1445599454
s   1 1.0 
     9431.4705890000       682.0946659463
s   1 1.0 
     4287.0320860000       377.5962240397
s   1 1.0 
     1948.6509480000       209.0309681559
s   1 1.0 
      885.7504310000       115.7160555982
s   1 1.0 
      402.6138320000        64.0584772366
s   1 1.0 
      183.0062870000        35.4617039283
s   1 1.0 
       83.1846760000        19.6310075135
s   1 1.0 
       37.8112160000        10.8673980720
s   1 1.0 
       17.1869170000         6.0160103808
s   1 1.0 
        7.8122350000         3.3303629495
s   1 1.0 
        3.5510160000         1.8436333860
s   1 1.0 
        1.6140980000         1.0206045891
s   1 1.0 
        0.7336810000         0.5649897208
s   1 1.0 
        0.3334910000         0.3127686249
s   1 1.0 
        0.1515870000         0.1731436469
s   1 1.0 
        0.0689030000         0.0958492438
s   1 1.0 
        0.0313200000         0.0530611193
s   1 1.0 
        0.0142360000         0.0293731874
p   8 1.0 
   782789.9000960001    105400.6380222760
   326162.4583730000      9339.8703413204
   135901.0243220000     31114.7166186033
    56625.4268010000     15807.4263964350
    23593.9278340000     15422.4005191925
     9830.8032640000     12674.9472511059
     4096.1680270000     12080.1456614186
     1706.7366780000     11164.2062033065
p   1 1.0 
      711.1402820000      5234.6082754400
p   1 1.0 
      296.3084510000      1752.3471056201
p   1 1.0 
      123.4618550000       586.6189460208
p   1 1.0 
       51.4424390000       196.3776356850
p   1 1.0 
       21.4343500000        65.7397404951
p   1 1.0 
        8.9309790000        22.0071560566
p   1 1.0 
        3.7212410000         7.3671554630
p   1 1.0 
        1.5505170000         2.4662423617
p   1 1.0 
        0.6460490000         0.8256042333
p   1 1.0 
        0.2691870000         0.2763806863
p   1 1.0 
        0.1121610000         0.0925214496
p   1 1.0 
        0.0467340000         0.0309728579
d   7 1.0 
    37896.8365590000     43506.3623126937
    15158.7346230000     21857.0905485274
     6063.4938490000     24630.8084267633
     2425.3975400000     23119.8187386178
      970.1590160000     25018.7518608141
      388.0636060000     22853.9144711695
      155.2254430000     15499.7964819019
d   1 1.0 
       62.0901770000      3915.2559196064
d   1 1.0 
       24.8360710000       787.7077997530
d   1 1.0 
        9.9344280000       158.4784080703
d   1 1.0 
        3.9737710000        31.8841649022
d   1 1.0 
        1.5895090000         6.4147586096
d   1 1.0 
        0.6358030000         1.2905789757
d   1 1.0 
        0.2543210000         0.2596503863
d   1 1.0 
        0.1017290000         0.0522394313
d   1 1.0 
        0.0406910000         0.0105097460
f   6 1.0 
     3860.7881580000     45311.1110738893
     1484.9185220000     38972.8076748077
      571.1225090000     44376.6887792609
      219.6625030000     42822.5096425147
       84.4855780000     30269.0683434645
       32.4944530000     11761.6594792960
f   1 1.0 
       12.4978670000      1674.4834181961
f   1 1.0 
        4.8068720000       195.0701571938
f   1 1.0 
        1.8487970000        22.7248403933
f   1 1.0 
        0.7110760000         2.6473485595
f   1 1.0 
        0.2734910000         0.3084053601
f   1 1.0 
        0.1051890000         0.0359280225

  2 0
s   6 1.0 
    35479.1004410000         1.9229128581
     5318.4728983000         2.2734773358
     1210.4810975000         3.4747482552
      342.8551814000         5.2879612972
      112.0194318100         7.1666332516
       40.7147402500         7.7556346254
s   1 1.0 
       16.0396781100         5.7122450312
s   1 1.0 
        6.5038186700         2.9025947842
s   1 1.0 
        1.5440477500         0.9872011154
s   1 1.0 
        0.6122345300        -0.4932856223
s   1 1.0 
        0.2402798000         0.2445952611
p   4 1.0 
       80.2339004800         4.2755032106
       18.5940107400         4.7314752302
        5.6867902700         4.0864798013
        1.9511006300         2.2989954518
p   1 1.0 
        0.6697021100         0.8635593126
p   1 1.0 
        0.2165130000         0.2105208234
d   1 1.0 
        3.1070000000        20.7284714039
d   1 1.0 
        0.8550000000         2.1672588463
f   1 1.0 
        1.9170000000        24.6547062912

  3 0
s   6 1.0 
    35479.1004410000         1.9229128581
     5318.4728983000         2.2734773358
     1210.4810975000         3.4747482552
      342.8551814000         5.2879612972
      112.0194318100         7.1666332516
       40.7147402500         7.7556346254
s   1 1.0 
       16.0396781100         5.7122450312
s   1 1.0 
        6.5038186700         2.9025947842
s   1 1.0 
        1.5440477500         0.9872011154
s   1 1.0 
        0.6122345300        -0.4932856223
s   1 1.0 
        0.2402798000         0.2445952611
p   4 1.0 
       80.2339004800         4.2755032106
       18.5940107400         4.7314752302
        5.6867902700         4.0864798013
        1.9511006300         2.2989954518
p   1 1.0 
        0.6697021100         0.8635593126
p   1 1.0 
        0.2165130000         0.2105208234
d   1 1.0 
        3.1070000000        20.7284714039
d   1 1.0 
        0.8550000000         2.1672588463
f   1 1.0 
        1.9170000000        24.6547062912

  4 0
s   6 1.0 
    35479.1004410000         1.9229128581
     5318.4728983000         2.2734773358
     1210.4810975000         3.4747482552
      342.8551814000         5.2879612972
      112.0194318100         7.1666332516
       40.7147402500         7.7556346254
s   1 1.0 
       16.0396781100         5.7122450312
s   1 1.0 
        6.5038186700         2.9025947842
s   1 1.0 
        1.5440477500         0.9872011154
s   1 1.0 
        0.6122345300        -0.4932856223
s   1 1.0 
        0.2402798000         0.2445952611
p   4 1.0 
       80.2339004800         4.2755032106
       18.5940107400         4.7314752302
        5.6867902700         4.0864798013
        1.9511006300         2.2989954518
p   1 1.0 
        0.6697021100         0.8635593126
p   1 1.0 
        0.2165130000         0.2105208234
d   1 1.0 
        3.1070000000        20.7284714039
d   1 1.0 
        0.8550000000         2.1672588463
f   1 1.0 
        1.9170000000        24.6547062912

[5D]
[7F]
[9G]
[MO]
 Sym=     1a
 Ene= -3.93445220895380E+03
 Spin= Alpha
 Occup= 2.000000
  1       0.078450256454
  2       0.061820845330
  3       0.107263355694
  4       0.173848749457
  5       0.263579401762
  6       0.308463283768
  7       0.199488979654
  8       0.034065397671
  9       0.000805485279
 10      -0.000550042107
 11       0.000405805013
 12      -0.000306525995
 13       0.000219709771
 14      -0.000148099561
 15       0.000098564666
 16      -0.000065799792
 17       0.000043588123
 18      -0.000027199527
 19       0.000014105638
 20      -0.000006151195
 21       0.000001654768
 22       0.000000038950
 23       0.000000053584
 24      -0.000000094130
 25      -0.000000009724
 26      -0.000000013364
 27       0.000000023486
 28      -0.000000005736
 29      -0.000000007884
 30       0.000000013860
 31      -0.000000001331
 32      -0.000000001834
 33       0.000000003212
 34       0.000000002232
 35       0.000000003082
 36      -0.000000005394
 37      -0.000000003239
 38      -0.000000004479
 39       0.000000007829
 40       0.000000006057
 41       0.000000008373
 42      -0.000000014644
 43      -0.000000008420
 44      -0.000000011651
 45       0.000000020359
 46       0.000000010799
 47       0.000000014965
 48      -0.000000026114
 49      -0.000000007999
 50      -0.000000011162
 51       0.000000019358
 52      -0.000000031734
 53      -0.000000043462
 54       0.000000076625
 55       0.000000130222
 56       0.000000178795
 57      -0.000000314519
 58      -0.000000052059
 59      -0.000000071576
 60       0.000000125778
 61       0.000000001757
 62      -0.000000001674
 63      -0.000000002305
 64      -0.000000000309
 65       0.000000000954
 66       0.000000002391
 67      -0.000000002280
 68      -0.000000003135
 69      -0.000000000420
 70       0.000000001296
 71      -0.000000011222
 72       0.000000010698
 73       0.000000014719
 74       0.000000001975
 75      -0.000000006089
 76       0.000000017562
 77      -0.000000016743
 78      -0.000000023034
 79      -0.000000003091
 80       0.000000009529
 81      -0.000000031286
 82       0.000000029827
 83       0.000000041033
 84       0.000000005507
 85      -0.000000016975
 86       0.000000057529
 87      -0.000000054848
 88      -0.000000075451
 89      -0.000000010127
 90       0.000000031211
 91      -0.000000097980
 92       0.000000093418
 93       0.000000128502
 94       0.000000017249
 95      -0.000000053149
 96       0.000000121304
 97      -0.000000115655
 98      -0.000000159096
 99      -0.000000021354
100       0.000000065804
101       0.000000092611
102      -0.000000088175
103      -0.000000121535
104      -0.000000016277
105       0.000000050393
106      -0.000000063156
107       0.000000060180
108       0.000000082855
109       0.000000011113
110      -0.000000034310
111      -0.000000002493
112       0.000000001102
113       0.000000001233
114       0.000000003248
115      -0.000000009039
116      -0.000000007400
117       0.000000001998
118       0.000000007268
119      -0.000000003149
120      -0.000000003505
121      -0.000000009470
122       0.000000026348
123       0.000000021653
124      -0.000000005848
125      -0.000000015000
126       0.000000006353
127       0.000000007027
128       0.000000019553
129      -0.000000054384
130      -0.000000044886
131       0.000000012126
132       0.000000029171
133      -0.000000012185
134      -0.000000013426
135      -0.000000038037
136       0.000000105771
137       0.000000087521
138      -0.000000023647
139      -0.000000058047
140       0.000000024227
141       0.000000026686
142       0.000000075700
143      -0.000000210489
144      -0.000000174202
145       0.000000047071
146       0.000000104280
147      -0.000000044202
148      -0.000000048900
149      -0.000000135961
150       0.000000378131
151       0.000000312060
152      -0.000000084308
153      -0.000000014217
154       0.000000009809
155       0.000000011988
156       0.000000018405
157      -0.000000051545
158      -0.000000037656
159       0.000000010129
160      -0.000000003274
161       0.000000013329
162      -0.000000018661
163      -0.000000025948
164      -0.000000114266
165       0.000000185010
166       0.000000001555
167       0.000000002221
168       0.000000001761
169       0.000000081268
170       0.000000115593
171       0.000000051149
172       0.000000151198
173       0.000000214831
174       0.000000082743
175      -0.000000010050
176       0.000000012710
177       0.000000018071
178      -0.000000008489
179       0.000000023508
180       0.000000004054
181      -0.000000011787
182      -0.000000016754
183       0.000000004739
184      -0.000000012915
185       0.000000027695
186       0.000000008624
187       0.000000012272
188       0.000000013246
189      -0.000000036881
190      -0.000000039737
191       0.000000010867
192      -0.000000003288
193       0.000000013389
194      -0.000000018769
195      -0.000000025718
196      -0.000000114021
197       0.000000185407
198       0.000000001609
199      -0.000000002696
200      -0.000000001039
201       0.000000081807
202      -0.000000102632
203      -0.000000072864
204       0.000000152413
205      -0.000000180507
206      -0.000000141952
207      -0.000000007326
208      -0.000000013793
209       0.000000019914
210      -0.000000006654
211      -0.000000023099
212       0.000000009349
213       0.000000005189
214      -0.000000013202
215       0.000000007638
216       0.000000016964
217      -0.000000029155
218      -0.000000001988
219       0.000000004372
220      -0.000000011503
221      -0.000000045075
222      -0.000000031312
223      -0.000000014669
224      -0.000000003277
225       0.000000013342
226      -0.000000018684
227      -0.000000025900
228      -0.000000114228
229       0.000000185051
230      -0.000000003015
231       0.000000000594
232      -0.000000001062
233      -0.000000123024
234       0.000000042339
235      -0.000000075120
236      -0.000000218693
237       0.000000082252
238      -0.000000145874
239      -0.000000006618
240       0.000000023923
241      -0.000000006501
242       0.000000019366
243      -0.000000013474
244       0.000000008958
245      -0.000000014619
246       0.000000000585
247      -0.000000016308
248       0.000000008214
249      -0.000000028905
250       0.000000007097
251      -0.000000001176
252       0.000000037752
253      -0.000000028042
254      -0.000000018573
255       0.000000027980
 Sym=     1a
 Ene= -7.33605795038829E+02
 Spin= Alpha
 Occup= 2.000000
  1       0.032585829924
  2       0.027686210185
  3       0.047061532037
  4       0.083446586434
  5       0.136668177614
  6       0.181020291911
  7       0.086605581382
  8      -0.351893665776
  9      -0.621414539575
 10      -0.184147484021
 11       0.002404082309
 12      -0.002459879112
 13       0.001417247839
 14      -0.000792807643
 15       0.000474770972
 16      -0.000307942422
 17       0.000201449601
 18      -0.000124620367
 19       0.000064522861
 20      -0.000028112816
 21       0.000007558312
 22       0.000000286434
 23       0.000000393625
 24      -0.000000691870
 25       0.000000405196
 26       0.000000556734
 27      -0.000000978659
 28       0.000000708409
 29       0.000000973321
 30      -0.000001710936
 31       0.000000479743
 32       0.000000659092
 33      -0.000001158695
 34       0.000000083338
 35       0.000000114617
 36      -0.000000201369
 37       0.000000013063
 38       0.000000017835
 39      -0.000000031512
 40       0.000000029933
 41       0.000000041363
 42      -0.000000072376
 43      -0.000000037815
 44      -0.000000052317
 45       0.000000091428
 46       0.000000034449
 47       0.000000047881
 48      -0.000000083322
 49      -0.000000027685
 50      -0.000000038798
 51       0.000000067021
 52      -0.000000146454
 53      -0.000000200598
 54       0.000000353622
 55       0.000000591662
 56       0.000000812366
 57      -0.000001428919
 58      -0.000000236137
 59      -0.000000324677
 60       0.000000570526
 61      -0.000000005442
 62       0.000000005203
 63       0.000000007122
 64       0.000000000944
 65      -0.000000002883
 66      -0.000000060320
 67       0.000000057472
 68       0.000000079137
 69       0.000000010612
 70      -0.000000032786
 71      -0.000000082196
 72       0.000000078360
 73       0.000000107808
 74       0.000000014471
 75      -0.000000044596
 76       0.000000072418
 77      -0.000000069047
 78      -0.000000094977
 79      -0.000000012750
 80       0.000000039282
 81      -0.000000121199
 82       0.000000115552
 83       0.000000158955
 84       0.000000021337
 85      -0.000000065749
 86       0.000000253750
 87      -0.000000241923
 88      -0.000000332807
 89      -0.000000044670
 90       0.000000137664
 91      -0.000000434385
 92       0.000000414162
 93       0.000000569706
 94       0.000000076468
 95      -0.000000235622
 96       0.000000538952
 97      -0.000000513853
 98      -0.000000706857
 99      -0.000000094870
100       0.000000292344
101       0.000000424546
102      -0.000000404216
103      -0.000000557141
104      -0.000000074607
105       0.000000230972
106      -0.000000287601
107       0.000000274055
108       0.000000377302
109       0.000000050608
110      -0.000000156234
111       0.000000035921
112      -0.000000018305
113      -0.000000021206
114      -0.000000046653
115       0.000000130136
116       0.000000103364
117      -0.000000027857
118       0.000000024480
119      -0.000000010284
120      -0.000000011350
121      -0.000000031918
122       0.000000088761
123       0.000000073370
124      -0.000000019823
125      -0.000000071882
126       0.000000030986
127       0.000000034444
128       0.000000093676
129      -0.000000260606
130      -0.000000214383
131       0.000000057903
132       0.000000128877
133      -0.000000053799
134      -0.000000059268
135      -0.000000168052
136       0.000000467304
137       0.000000386718
138      -0.000000104488
139      -0.000000256961
140       0.000000107077
141       0.000000117892
142       0.000000335121
143      -0.000000931807
144      -0.000000771393
145       0.000000208441
146       0.000000467421
147      -0.000000198269
148      -0.000000219384
149      -0.000000609433
150       0.000001694944
151       0.000001398614
152      -0.000000377856
153      -0.000000062083
154       0.000000043446
155       0.000000053207
156       0.000000080348
157      -0.000000225068
158      -0.000000163623
159       0.000000044007
160      -0.000000013807
161       0.000000061573
162      -0.000000088396
163      -0.000000105548
164      -0.000000510090
165       0.000000826569
166       0.000000008936
167       0.000000012751
168       0.000000009250
169       0.000000360450
170       0.000000512708
171       0.000000227420
172       0.000000681587
173       0.000000968427
174       0.000000372675
175      -0.000000047230
176       0.000000058967
177       0.000000083839
178      -0.000000039755
179       0.000000110110
180       0.000000024912
181      -0.000000059051
182      -0.000000083939
183       0.000000026437
184      -0.000000072338
185       0.000000127471
186       0.000000039844
187       0.000000056697
188       0.000000060970
189      -0.000000169754
190      -0.000000183374
191       0.000000050153
192      -0.000000013861
193       0.000000061826
194      -0.000000088862
195      -0.000000104536
196      -0.000000509036
197       0.000000828261
198       0.000000009191
199      -0.000000014668
200      -0.000000006359
201       0.000000362846
202      -0.000000455689
203      -0.000000322903
204       0.000000687037
205      -0.000000813384
206      -0.000000640038
207      -0.000000033687
208      -0.000000064891
209       0.000000093000
210      -0.000000030711
211      -0.000000107692
212       0.000000044634
213       0.000000032542
214      -0.000000070740
215       0.000000036958
216       0.000000088835
217      -0.000000134296
218      -0.000000009480
219       0.000000020266
220      -0.000000052820
221      -0.000000207830
222      -0.000000144224
223      -0.000000067649
224      -0.000000013817
225       0.000000061621
226      -0.000000088485
227      -0.000000105368
228      -0.000000510002
229       0.000000826625
230      -0.000000016590
231       0.000000003655
232      -0.000000006521
233      -0.000000546108
234       0.000000187632
235      -0.000000332909
236      -0.000000985546
237       0.000000370867
238      -0.000000657721
239      -0.000000030372
240       0.000000111872
241      -0.000000030805
242       0.000000090052
243      -0.000000063008
244       0.000000042446
245      -0.000000079806
246       0.000000007594
247      -0.000000083089
248       0.000000044867
249      -0.000000133132
250       0.000000032922
251      -0.000000005682
252       0.000000173890
253      -0.000000129423
254      -0.000000085504
255       0.000000128946
 Sym=     1a
 Ene= -6.21522046446403E+02
 Spin= Alpha
 Occup= 2.000000
  1       0.000000000087
  2       0.000000000075
  3       0.000000000123
  4       0.000000000231
  5       0.000000000349
  6       0.000000000535
  7       0.000000000120
  8      -0.000000000797
  9      -0.000000002059
 10       0.000000000339
 11      -0.000000001358
 12       0.000000002459
 13      -0.000000003544
 14       0.000000004797
 15      -0.000000004707
 16      -0.000000002304
 17       0.000000021388
 18      -0.000000028924
 19       0.000000006574
 20       0.000000000351
 21      -0.000000000020
 22      -0.108152914436
 23       0.131548196710
 24       0.030170603206
 25      -0.187909752728
 26       0.228557771619
 27       0.052419767128
 28      -0.286792344384
 29       0.348830319744
 30       0.080004298256
 31      -0.152996425004
 32       0.186092107780
 33       0.042680259332
 34      -0.005524496780
 35       0.006719537428
 36       0.001541127117
 37      -0.002749070712
 38       0.003343741115
 39       0.000766887707
 40       0.001914786274
 41      -0.002328987342
 42      -0.000534153800
 43      -0.001182385545
 44       0.001438156632
 45       0.000329841749
 46       0.000724063457
 47      -0.000880692626
 48      -0.000201987645
 49      -0.000448022657
 50       0.000544940497
 51       0.000124983536
 52       0.000268171695
 53      -0.000326185429
 54      -0.000074810930
 55      -0.000138197339
 56       0.000168096338
 57       0.000038548002
 58       0.000031909596
 59      -0.000038812865
 60      -0.000008901029
 61       0.000000204391
 62      -0.000001035451
 63       0.000000745933
 64       0.000000163498
 65      -0.000000340215
 66       0.000000050872
 67       0.000000678339
 68      -0.000000309833
 69       0.000000547550
 70       0.000000526932
 71       0.000000034215
 72      -0.000001615949
 73       0.000000888489
 74      -0.000000753901
 75      -0.000000999500
 76      -0.000000101852
 77       0.000002666088
 78      -0.000001509819
 79       0.000001083023
 80       0.000001574280
 81       0.000000215678
 82      -0.000004873141
 83       0.000002788286
 84      -0.000001875008
 85      -0.000002828924
 86      -0.000000424338
 87       0.000009518159
 88      -0.000005449296
 89       0.000003651037
 90       0.000005520375
 91       0.000000824209
 92      -0.000018708497
 93       0.000010702545
 94      -0.000007209831
 95      -0.000010866901
 96      -0.000001256525
 97       0.000029221438
 98      -0.000016688180
 99       0.000011368903
100       0.000017024084
101       0.000001253476
102      -0.000032558632
103       0.000018442439
104      -0.000013198325
105      -0.000019209052
106      -0.000000174663
107       0.000003924239
108      -0.000002244618
109       0.000001508548
110       0.000002276778
111      -0.000000014180
112      -0.000000066829
113       0.000000029456
114      -0.000000016035
115      -0.000000020797
116       0.000000004324
117      -0.000000050938
118       0.000000134585
119       0.000000129632
120      -0.000000037501
121       0.000000283762
122       0.000000112644
123       0.000000033623
124       0.000000291756
125      -0.000000346482
126      -0.000000230595
127       0.000000047072
128      -0.000000757415
129      -0.000000272683
130      -0.000000101831
131      -0.000000711939
132       0.000000809345
133       0.000000461193
134      -0.000000072831
135       0.000001789265
136       0.000000624044
137       0.000000249409
138       0.000001633493
139      -0.000002095550
140      -0.000001214356
141       0.000000198497
142      -0.000004626254
143      -0.000001619828
144      -0.000000643293
145      -0.000004236310
146       0.000004540822
147       0.000002780346
148      -0.000000502268
149       0.000009982130
150       0.000003537065
151       0.000001373530
152       0.000009233789
153      -0.000005099758
154      -0.000004213039
155       0.000001086328
156      -0.000010935089
157      -0.000004151015
158      -0.000001377123
159      -0.000010789531
160      -0.000000409382
161       0.000001929246
162      -0.000003585235
163       0.000008440572
164       0.000011783860
165       0.000014527837
166       0.000001215872
167       0.000001862219
168       0.000000810435
169      -0.000002821195
170      -0.000005852757
171      -0.000002414939
172      -0.000000534133
173       0.000002976791
174       0.000001026027
175      -0.000000679212
176       0.000000842625
177       0.000000709911
178      -0.000000021284
179       0.000001641799
180       0.000002204868
181      -0.000002585744
182      -0.000002509818
183       0.000000584723
184      -0.000005192587
185       0.000000451278
186       0.000000283397
187       0.000000199546
188      -0.000000140233
189      -0.000000691310
190      -0.000000508943
191       0.000000917878
192       0.000001264270
193      -0.000005958077
194       0.000011072607
195      -0.000026071634
196      -0.000036400297
197      -0.000044853892
198      -0.000003990913
199       0.000005003692
200       0.000003524300
201       0.000011651513
202      -0.000014607552
203      -0.000009940731
204      -0.000004149279
205       0.000005357385
206       0.000002708799
207       0.000000748966
208       0.000002919724
209      -0.000003637712
210       0.000000892736
211       0.000003884952
212      -0.000002613971
213      -0.000009523490
214       0.000011866689
215      -0.000002950862
216      -0.000012866786
217       0.000001475511
218       0.000000358012
219      -0.000000471950
220       0.000000600487
221       0.000002419951
222       0.000001506374
223       0.000000759108
224      -0.000000854634
225       0.000004027551
226      -0.000007484697
227       0.000017621607
228       0.000024602626
229       0.000030329037
230      -0.000004051887
231       0.000001438935
232      -0.000002430271
233       0.000011830623
234      -0.000004672458
235       0.000006590555
236      -0.000004331664
237       0.000002635257
238      -0.000001225120
239      -0.000000279780
240       0.000003205267
241      -0.000000962426
242       0.000002159658
243      -0.000001319841
244       0.000001173123
245      -0.000010295889
246       0.000003240876
247      -0.000007063643
248       0.000004677480
249      -0.000000903427
250       0.000000746490
251      -0.000000205519
252       0.000001593152
253      -0.000000805207
254      -0.000000801895
255       0.000000694543
 Sym=     1a
 Ene= -6.21522046420883E+02
 Spin= Alpha
 Occup= 2.000000
  1       0.000000000047
  2       0.000000000040
  3       0.000000000067
  4       0.000000000123
  5       0.000000000189
  6       0.000000000285
  7       0.000000000087
  8      -0.000000000427
  9      -0.000000001017
 10      -0.000000000122
 11      -0.000000000359
 12       0.000000000846
 13      -0.000000001132
 14       0.000000001351
 15      -0.000000000430
 16      -0.000000005078
 17       0.000000017724
 18      -0.000000023337
 19       0.000000010051
 20      -0.000000002269
 21       0.000000000588
 22       0.121606211721
 23       0.078212578637
 24       0.094905047679
 25       0.211284118349
 26       0.135890062599
 27       0.164892311347
 28       0.322466858433
 29       0.207398653057
 30       0.251662576661
 31       0.172027871128
 32       0.110641908915
 33       0.134255586773
 34       0.006211697260
 35       0.003995131652
 36       0.004847790541
 37       0.003091030942
 38       0.001988036255
 39       0.002412330783
 40      -0.002152968163
 41      -0.001384709605
 42      -0.001680238941
 43       0.001329462102
 44       0.000855061796
 45       0.001037550425
 46      -0.000814126659
 47      -0.000523618226
 48      -0.000635367216
 49       0.000503745352
 50       0.000323993819
 51       0.000393136252
 52      -0.000301524196
 53      -0.000193932727
 54      -0.000235315656
 55       0.000155396710
 56       0.000099946666
 57       0.000121270258
 58      -0.000035881257
 59      -0.000023077525
 60      -0.000028002676
 61       0.000000675607
 62       0.000000365368
 63      -0.000000221513
 64       0.000000346323
 65      -0.000001025956
 66       0.000000114789
 67       0.000000019364
 68       0.000000470805
 69      -0.000000527619
 70       0.000000789121
 71       0.000000195260
 72       0.000000171498
 73      -0.000000847720
 74       0.000001004079
 75      -0.000001781472
 76      -0.000000459083
 77      -0.000000346554
 78       0.000001318647
 79      -0.000001582762
 80       0.000002910460
 81       0.000000928148
 82       0.000000674794
 83      -0.000002358212
 84       0.000002844974
 85      -0.000005301088
 86      -0.000001822282
 87      -0.000001322390
 88       0.000004600229
 89      -0.000005551449
 90       0.000010351735
 91       0.000003552808
 92       0.000002585810
 93      -0.000009057705
 94       0.000010926321
 95      -0.000020351729
 96      -0.000005457031
 97      -0.000003996100
 98       0.000014199933
 99      -0.000017114620
100       0.000031805570
101       0.000005630952
102       0.000004242703
103      -0.000016093194
104       0.000019317644
105      -0.000035538510
106      -0.000000748884
107      -0.000000543684
108       0.000001899403
109      -0.000002291086
110       0.000004269536
111      -0.000000037240
112      -0.000000003760
113      -0.000000049430
114       0.000000020607
115      -0.000000036284
116       0.000000057024
117      -0.000000000088
118       0.000000392769
119       0.000000025336
120       0.000000126967
121      -0.000000109564
122       0.000000003701
123      -0.000000173583
124      -0.000000051033
125      -0.000001019199
126      -0.000000063116
127      -0.000000256938
128       0.000000264481
129       0.000000060085
130       0.000000371733
131       0.000000142005
132       0.000002386511
133       0.000000145829
134       0.000000547622
135      -0.000000604539
136      -0.000000192522