[Molden Format]
[Title]
 Molden file created by orca_2mkl for BaseName=/data01/Nikolayandreadi/heavy/simpleIons/F_-

[Atoms] AU
F    1   9         -1.8897261339         3.7794522678         0.0000000000 
[GTO]
  1 0
s   6 1.0 
    35479.1004410000         1.9229128581
     5318.4728983000         2.2734773358
     1210.4810975000         3.4747482552
      342.8551814000         5.2879612972
      112.0194318100         7.1666332516
       40.7147402500         7.7556346254
s   1 1.0 
       16.0396781100         5.7122450312
s   1 1.0 
        6.5038186700         2.9025947842
s   1 1.0 
        1.5440477500         0.9872011154
s   1 1.0 
        0.6122345300        -0.4932856223
s   1 1.0 
        0.2402798000         0.2445952611
p   4 1.0 
       80.2339004800         4.2755032106
       18.5940107400         4.7314752302
        5.6867902700         4.0864798013
        1.9511006300         2.2989954518
p   1 1.0 
        0.6697021100         0.8635593126
p   1 1.0 
        0.2165130000         0.2105208234
d   1 1.0 
        3.1070000000        20.7284714039
d   1 1.0 
        0.8550000000         2.1672588463
f   1 1.0 
        1.9170000000        24.6547062912
s   1 1.0 
        0.0800932667         0.1073018223
p   1 1.0 
        0.0721710000         0.0533204114

[5D]
[7F]
[9G]
[MO]
 Sym=     1a
 Ene= -2.58571232345517E+01
 Spin= Alpha
 Occup= 2.000000
  1      -0.426770089346
  2      -0.413762274327
  3      -0.258565060074
  4      -0.023908695125
  5      -0.008878705134
  6      -0.004252165976
  7      -0.000000000000
  8      -0.000000000000
  9       0.000000000000
 10       0.000000000000
 11       0.000000000000
 12      -0.000000000000
 13       0.000000000000
 14      -0.000000000000
 15      -0.000000000000
 16      -0.000000000000
 17      -0.000000000000
 18      -0.000000000000
 19      -0.000000000000
 20      -0.000000000000
 21       0.000000000000
 22       0.000000000000
 23       0.000000000000
 24       0.000000000000
 25       0.000000000000
 26       0.000000000000
 27      -0.000000000000
 28      -0.000000000000
 29       0.000000000000
 30      -0.000000000000
 31      -0.000000000000
 32      -0.000000000000
 33       0.000995047338
 34      -0.000000000000
 35       0.000000000000
 36       0.000000000000
 Sym=     1a
 Ene= -1.07728872590067E+00
 Spin= Alpha
 Occup= 2.000000
  1       0.104661512601
  2       0.162004112050
  3       0.107126528092
  4      -0.373318634377
  5       0.502526882729
  6      -0.254645442143
  7       0.000000000001
  8      -0.000000000000
  9      -0.000000000001
 10      -0.000000000000
 11      -0.000000000000
 12       0.000000000000
 13       0.000000000003
 14       0.000000000000
 15      -0.000000000005
 16       0.000000000000
 17      -0.000000000000
 18      -0.000000000000
 19       0.000000000000
 20       0.000000000000
 21      -0.000000000000
 22       0.000000000000
 23      -0.000000000000
 24      -0.000000000000
 25       0.000000000000
 26       0.000000000000
 27       0.000000000000
 28       0.000000000000
 29      -0.000000000000
 30       0.000000000000
 31       0.000000000000
 32      -0.000000000000
 33      -0.019095757394
 34      -0.000000000004
 35      -0.000000000000
 36       0.000000000006
 Sym=     1a
 Ene= -1.80341143592136E-01
 Spin= Alpha
 Occup= 2.000000
  1       0.000000000000
  2       0.000000000000
  3       0.000000000000
  4      -0.000000000002
  5      -0.000000000001
  6      -0.000000000009
  7       0.138893623150
  8      -0.430929437964
  9      -0.125518289220
 10       0.120097145055
 11      -0.372611744478
 12      -0.108531895459
 13       0.086172509097
 14      -0.267357637230
 15      -0.077874172151
 16      -0.000000000000
 17      -0.000000000000
 18       0.000000000000
 19       0.000000000000
 20      -0.000000000000
 21      -0.000000000000
 22      -0.000000000000
 23       0.000000000000
 24      -0.000000000000
 25      -0.000000000000
 26      -0.000000000000
 27      -0.000000000000
 28      -0.000000000000
 29      -0.000000000000
 30      -0.000000000000
 31      -0.000000000000
 32      -0.000000000000
 33       0.000000000016
 34       0.028641897307
 35      -0.088863955227
 36      -0.025883707748
 Sym=     1a
 Ene= -1.80341143588040E-01
 Spin= Alpha
 Occup= 2.000000
  1       0.000000000000
  2       0.000000000000
  3       0.000000000001
  4      -0.000000000003
  5      -0.000000000004
  6      -0.000000000022
  7       0.281972931385
  8       0.186001344134
  9      -0.326559682028
 10       0.243813526309
 11       0.160829776776
 12      -0.282366350679
 13       0.174941904776
 14       0.115399124565
 15      -0.202604457516
 16       0.000000000000
 17      -0.000000000000
 18      -0.000000000000
 19       0.000000000000
 20       0.000000000000
 21      -0.000000000000
 22      -0.000000000000
 23      -0.000000000000
 24      -0.000000000000
 25      -0.000000000000
 26      -0.000000000000
 27      -0.000000000000
 28       0.000000000000
 29      -0.000000000000
 30       0.000000000000
 31       0.000000000000
 32       0.000000000000
 33       0.000000000033
 34       0.058146944122
 35       0.038356198628
 36      -0.067341384469
 Sym=     1a
 Ene= -1.80341143581501E-01
 Spin= Alpha
 Occup= 2.000000
  1       0.000000000000
  2       0.000000000000
  3       0.000000000000
  4      -0.000000000000
  5       0.000000000001
  6       0.000000000002
  7       0.349208086094
  8       0.021208004648
  9       0.313608662388
 10       0.301949745559
 11       0.018337924757
 12       0.271167992907
 13       0.216656001139
 14       0.013157889700
 15       0.194569374025
 16      -0.000000000000
 17      -0.000000000000
 18      -0.000000000000
 19       0.000000000000
 20      -0.000000000000
 21      -0.000000000000
 22      -0.000000000000
 23       0.000000000000
 24      -0.000000000000
 25       0.000000000000
 26       0.000000000000
 27       0.000000000000
 28      -0.000000000000
 29       0.000000000000
 30      -0.000000000000
 31      -0.000000000000
 32       0.000000000000
 33      -0.000000000002
 34       0.072011816777
 35       0.004373400862
 36       0.064670694735
 Sym=     1a
 Ene= 4.17282540518533E-01
 Spin= Alpha
 Occup= 0.000000
  1       0.022609792295
  2       0.025442094225
  3       0.048625610779
  4      -0.230717928836
  5      -0.381732112103
  6      -1.356239866773
  7      -0.000000000245
  8      -0.000000000016
  9       0.000000000326
 10      -0.000000000011
 11       0.000000000001
 12       0.000000000015
 13      -0.000000000993
 14      -0.000000000067
 15       0.000000001321
 16       0.000000000000
 17      -0.000000000000
 18      -0.000000000000
 19       0.000000000000
 20       0.000000000000
 21      -0.000000000000
 22       0.000000000000
 23       0.000000000000
 24      -0.000000000000
 25      -0.000000000000
 26       0.000000000000
 27      -0.000000000000
 28       0.000000000000
 29       0.000000000000
 30      -0.000000000000
 31      -0.000000000000
 32       0.000000000000
 33       1.726516233252
 34       0.000000002097
 35       0.000000000142
 36      -0.000000002793
 Sym=     1a
 Ene= 4.18842848340092E-01
 Spin= Alpha
 Occup= 0.000000
  1      -0.000000000001
  2      -0.000000000001
  3      -0.000000000001
  4       0.000000000007
  5       0.000000000011
  6       0.000000000040
  7       0.006346766547
  8      -0.147697836848
  9      -0.000690429465
 10       0.000147662405
 11      -0.003436303760
 12      -0.000016063372
 13       0.026419445696
 14      -0.614816214072
 15      -0.002874024689
 16      -0.000000000000
 17      -0.000000000000
 18       0.000000000000
 19      -0.000000000000
 20      -0.000000000000
 21       0.000000000000
 22       0.000000000000
 23      -0.000000000000
 24       0.000000000000
 25       0.000000000000
 26      -0.000000000000
 27       0.000000000000
 28      -0.000000000000
 29       0.000000000000
 30      -0.000000000000
 31      -0.000000000000
 32      -0.000000000000
 33      -0.000000000051
 34      -0.056054167851
 35       1.304456257611
 36       0.006097821437
 Sym=     1a
 Ene= 4.18842848341178E-01
 Spin= Alpha
 Occup= 0.000000
  1      -0.000000000005
  2      -0.000000000006
  3      -0.000000000012
  4       0.000000000055
  5       0.000000000091
  6       0.000000000322
  7       0.109732816133
  8       0.004252691751
  9       0.098974910078
 10       0.002553018358
 11       0.000098942144
 12       0.002302727400
 13       0.456780654433
 14       0.017702519533
 15       0.411999124708
 16      -0.000000000000
 17      -0.000000000000
 18      -0.000000000000
 19       0.000000000000
 20      -0.000000000000
 21       0.000000000000
 22       0.000000000000
 23       0.000000000000
 24      -0.000000000000
 25       0.000000000000
 26       0.000000000000
 27       0.000000000000
 28      -0.000000000000
 29       0.000000000000
 30      -0.000000000000
 31       0.000000000000
 32      -0.000000000000
 33      -0.000000000410
 34      -0.969152031757
 35      -0.037559455739
 36      -0.874139009432
 Sym=     1a
 Ene= 4.18842848343494E-01
 Spin= Alpha
 Occup= 0.000000
  1       0.000000000060
  2       0.000000000067
  3       0.000000000129
  4      -0.000000000614
  5      -0.000000001031
  6      -0.000000003632
  7       0.098862716765
  8       0.004761591260
  9      -0.109813021222
 10       0.002300117133
 11       0.000110782084
 12      -0.002554884387
 13       0.411532101844
 14       0.019820896322
 15      -0.457114521149
 16       0.000000000000
 17      -0.000000000000
 18       0.000000000000
 19       0.000000000000
 20      -0.000000000000
 21      -0.000000000000
 22       0.000000000000
 23      -0.000000000000
 24      -0.000000000000
 25       0.000000000000
 26      -0.000000000000
 27      -0.000000000000
 28       0.000000000000
 29      -0.000000000000
 30      -0.000000000000
 31       0.000000000000
 32      -0.000000000000
 33       0.000000004613
 34      -0.873148126491
 35      -0.042054018171
 36       0.969860397146
 Sym=     1a
 Ene= 1.28038912523603E+00
 Spin= Alpha
 Occup= 0.000000
  1       0.000000000001
  2       0.000000000003
  3      -0.000000000001
  4       0.000000000007
  5       0.000000000062
  6       0.000000000083
  7       0.049898015364
  8      -0.284636411960
  9      -0.037487121316
 10       0.138256258549
 11      -0.788663939370
 12      -0.103868442447
 13      -0.298402636436
 14       1.702197074051
 15       0.224182379833
 16      -0.000000000000
 17      -0.000000000000
 18       0.000000000000
 19       0.000000000000
 20      -0.000000000000
 21      -0.000000000000
 22       0.000000000000
 23      -0.000000000000
 24      -0.000000000000
 25      -0.000000000000
 26      -0.000000000000
 27      -0.000000000000
 28      -0.000000000000
 29       0.000000000000
 30      -0.000000000000
 31       0.000000000000
 32       0.000000000000
 33      -0.000000000030
 34       0.126995226140
 35      -0.724426918400
 36      -0.095408312619
 Sym=     1a
 Ene= 1.28038912523848E+00
 Spin= Alpha
 Occup= 0.000000
  1      -0.000000000002
  2      -0.000000000004
  3       0.000000000001
  4      -0.000000000010
  5      -0.000000000089
  6      -0.000000000115
  7      -0.155338671022
  8      -0.058765665920
  9       0.239435747144
 10      -0.430408770900
 11      -0.162826538129
 12       0.663422990295
 13       0.928964180927
 14       0.351433409015
 15      -1.431885771052
 16      -0.000000000000
 17       0.000000000000
 18       0.000000000000
 19      -0.000000000000
 20       0.000000000000
 21      -0.000000000000
 22      -0.000000000000
 23       0.000000000000
 24      -0.000000000000
 25      -0.000000000000
 26       0.000000000000
 27       0.000000000000
 28      -0.000000000000
 29       0.000000000000
 30      -0.000000000000
 31       0.000000000000
 32       0.000000000000
 33       0.000000000040
 34      -0.395351789254
 35      -0.149564245760
 36       0.609386899103
 Sym=     1a
 Ene= 1.28038912524139E+00
 Spin= Alpha
 Occup= 0.000000
  1      -0.000000000000
  2      -0.000000000000
  3       0.000000000000
  4      -0.000000000001
  5      -0.000000000007
  6      -0.000000000010
  7      -0.241439575388
  8      -0.021016486644
  9      -0.161796853928
 10      -0.668975150916
 11      -0.058231991595
 12      -0.448302953650
 13       1.443869166124
 14       0.125683856912
 15       0.967585733148
 16       0.000000000000
 17       0.000000000000
 18       0.000000000000
 19      -0.000000000000
 20       0.000000000000
 21      -0.000000000000
 22      -0.000000000000
 23      -0.000000000000
 24       0.000000000000
 25      -0.000000000000
 26       0.000000000000
 27      -0.000000000000
 28       0.000000000000
 29      -0.000000000000
 30      -0.000000000000
 31       0.000000000000
 32       0.000000000000
 33       0.000000000004
 34      -0.614486833828
 35      -0.053488970545
 36      -0.411788483035
 Sym=     1a
 Ene= 1.34512460009719E+00
 Spin= Alpha
 Occup= 0.000000
  1       0.054766797696
  2       0.124504403500
  3      -0.031873762798
  4       0.302648691757
  5       2.606023609718
  6       3.477719306802
  7      -0.000000000008
  8       0.000000000004
  9       0.000000000009
 10      -0.000000000020
 11       0.000000000015
 12       0.000000000024
 13       0.000000000043
 14      -0.000000000029
 15      -0.000000000052
 16       0.000000000000
 17      -0.000000000000
 18      -0.000000000000
 19       0.000000000000
 20       0.000000000000
 21       0.000000000000
 22      -0.000000000000
 23      -0.000000000000
 24       0.000000000000
 25      -0.000000000000
 26       0.000000000000
 27       0.000000000000
 28      -0.000000000000
 29      -0.000000000000
 30       0.000000000000
 31      -0.000000000000
 32      -0.000000000000
 33      -1.274247764376
 34      -0.000000000022
 35       0.000000000013
 36       0.000000000025
 Sym=     1a
 Ene= 2.69257363455373E+00
 Spin= Alpha
 Occup= 0.000000
  1      -0.000000000000
  2      -0.000000000000
  3      -0.000000000000
  4       0.000000000000
  5       0.000000000000
  6      -0.000000000000
  7       0.000000000000
  8      -0.000000000000
  9      -0.000000000000
 10      -0.000000000000
 11       0.000000000000
 12       0.000000000000
 13       0.000000000000
 14      -0.000000000000
 15      -0.000000000000
 16      -0.004913985794
 17       0.013570701606
 18       0.001357108054
 19       0.004412181289
 20      -0.001186994298
 21       0.325750676436
 22      -0.899608874235
 23      -0.089963399417
 24      -0.292485794577
 25       0.078686469951
 26      -0.000000000000
 27      -0.000000000000
 28       0.000000000000
 29       0.000000000000
 30      -0.000000000000
 31       0.000000000000
 32      -0.000000000000
 33       0.000000000000
 34      -0.000000000000
 35      -0.000000000000
 36       0.000000000000
 Sym=     1a
 Ene= 2.69257363455373E+00
 Spin= Alpha
 Occup= 0.000000
  1      -0.000000000000
  2      -0.000000000000
  3      -0.000000000000
  4       0.000000000000
  5      -0.000000000000
  6      -0.000000000000
  7      -0.000000000000
  8      -0.000000000000
  9      -0.000000000000
 10       0.000000000000
 11       0.000000000000
 12       0.000000000000
 13      -0.000000000000
 14      -0.000000000000
 15      -0.000000000000
 16      -0.012024493747
 17      -0.006301670223
 18       0.000336714428
 19       0.006471839825
 20       0.002175236799
 21       0.797109950314
 22       0.417740999652
 23      -0.022320974697
 24      -0.429021631156
 25      -0.144197579825
 26       0.000000000000
 27      -0.000000000000
 28       0.000000000000
 29      -0.000000000000
 30       0.000000000000
 31      -0.000000000000
 32       0.000000000000
 33       0.000000000000
 34       0.000000000000
 35       0.000000000000
 36       0.000000000000
 Sym=     1a
 Ene= 2.69257363455385E+00
 Spin= Alpha
 Occup= 0.000000
  1      -0.000000000000
  2      -0.000000000000
  3      -0.000000000000
  4       0.000000000000
  5       0.000000000000
  6      -0.000000000000
  7       0.000000000000
  8      -0.000000000000
  9      -0.000000000000
 10      -0.000000000000
 11       0.000000000000
 12       0.000000000000
 13       0.000000000000
 14      -0.000000000000
 15      -0.000000000000
 16      -0.001143101995
 17       0.002489069971
 18      -0.002872006259
 19      -0.004268958766
 20       0.014037615878
 21       0.075776826301
 22      -0.165001744187
 23       0.190386790024
 24       0.282991498963
 25      -0.930560864387
 26       0.000000000000
 27       0.000000000000
 28      -0.000000000000
 29      -0.000000000000
 30      -0.000000000000
 31      -0.000000000000
 32      -0.000000000000
 33      -0.000000000000
 34      -0.000000000000
 35       0.000000000000
 36       0.000000000000
 Sym=     1a
 Ene= 2.69257363455388E+00
 Spin= Alpha
 Occup= 0.000000
  1       0.000000000000
  2       0.000000000000
  3       0.000000000000
  4      -0.000000000000
  5      -0.000000000000
  6      -0.000000000000
  7       0.000000000000
  8      -0.000000000000
  9      -0.000000000000
 10       0.000000000000
 11       0.000000000000
 12       0.000000000000
 13      -0.000000000000
 14      -0.000000000000
 15      -0.000000000000
 16      -0.001599362928
 17       0.000717178635
 18      -0.014710319425
 19      -0.000371822720
 20      -0.003380115861
 21       0.106022601131
 22      -0.047542145100
 23       0.975154732722
 24       0.024648321690
 25       0.224069640058
 26      -0.000000000000
 27      -0.000000000000
 28       0.000000000000
 29      -0.000000000000
 30      -0.000000000000
 31       0.000000000000
 32      -0.000000000000
 33       0.000000000000
 34       0.000000000000
 35       0.000000000000
 36       0.000000000000
 Sym=     1a
 Ene= 2.69257363455398E+00
 Spin= Alpha
 Occup= 0.000000
  1       0.000000000000
  2       0.000000000000
  3       0.000000000000
  4      -0.000000000001
  5      -0.000000000001
  6      -0.000000000001
  7       0.000000000000
  8       0.000000000001
  9      -0.000000000000
 10      -0.000000000000
 11      -0.000000000001
 12       0.000000000000
 13       0.000000000000
 14       0.000000000001
 15      -0.000000000000
 16      -0.007643879233
 17       0.000666660129
 18       0.002105279913
 19      -0.012301013146
 20      -0.004050776044
 21       0.506716733664
 22      -0.044193247003
 23      -0.139560101417
 24       0.815440565180
 25       0.268528052750
 26      -0.000000000000
 27      -0.000000000000
 28       0.000000000000
 29      -0.000000000000
 30      -0.000000000000
 31       0.000000000000
 32      -0.000000000000
 33       0.000000000000
 34      -0.000000000000
 35      -0.000000000000
 36       0.000000000000
 Sym=     1a
 Ene= 4.21486167143183E+00
 Spin= Alpha
 Occup= 0.000000
  1      -0.000000000001
  2      -0.000000000001
  3      -0.000000000006
  4       0.000000000037
  5       0.000000000054
  6       0.000000000032
  7       0.315841229717
  8       1.066218217319
  9      -0.479322715727
 10      -0.446113071382
 11      -1.505990475411
 12       0.677024114580
 13       0.268362775712
 14       0.905940242740
 15      -0.407269103435
 16       0.000000000000
 17      -0.000000000000
 18      -0.000000000000
 19       0.000000000000
 20       0.000000000000
 21      -0.000000000000
 22       0.000000000000
 23       0.000000000000
 24      -0.000000000000
 25      -0.000000000000
 26      -0.000000000000
 27       0.000000000000
 28       0.000000000000
 29      -0.000000000000
 30      -0.000000000000
 31       0.000000000001
 32       0.000000000000
 33      -0.000000000008
 34      -0.089994707297
 35      -0.303804530109
 36       0.136576556333
 Sym=     1a
 Ene= 4.21486167144012E+00
 Spin= Alpha
 Occup= 0.000000
  1      -0.000000000001
  2      -0.000000000000
  3      -0.000000000003
  4       0.000000000020
  5       0.000000000028
  6       0.000000000017
  7      -1.075948244137
  8       0.459266889760
  9       0.312628429698
 10       1.519733748100
 11      -0.648696064666
 12      -0.441575120195
 13      -0.914207614942
 14       0.390228145452
 15       0.265632936004
 16      -0.000000000000
 17       0.000000000000
 18      -0.000000000000
 19      -0.000000000000
 20       0.000000000000
 21      -0.000000000000
 22      -0.000000000000
 23       0.000000000000
 24       0.000000000000
 25      -0.000000000000
 26      -0.000000000000
 27      -0.000000000000
 28       0.000000000000
 29      -0.000000000000
 30      -0.000000000000
 31       0.000000000001
 32       0.000000000000
 33      -0.000000000005
 34       0.306576970286
 35      -0.130861918669
 36      -0.089079263175
 Sym=     1a
 Ene= 4.21486167144446E+00
 Spin= Alpha
 Occup= 0.000000
  1      -0.000000000000
  2      -0.000000000000
  3      -0.000000000001
  4       0.000000000009
  5       0.000000000013
  6       0.000000000008
  7       0.457063374925
  8       0.344354282926
  9       1.067164670649
 10      -0.645583688322
 11      -0.486386615637
 12      -1.507327302779
 13       0.388355871339
 14       0.292589638400
 15       0.906744421602
 16      -0.000000000000
 17       0.000000000000
 18      -0.000000000000
 19       0.000000000000
 20       0.000000000000
 21       0.000000000000
 22      -0.000000000000
 23       0.000000000000
 24      -0.000000000000
 25      -0.000000000000
 26       0.000000000000
 27      -0.000000000000
 28      -0.000000000000
 29      -0.000000000000
 30       0.000000000000
 31       0.000000000000
 32       0.000000000000
 33      -0.000000000003
 34      -0.130234056774
 35      -0.098119118034
 36      -0.304074209244
 Sym=     1a
 Ene= 4.48041494113089E+00
 Spin= Alpha
 Occup= 0.000000
  1       0.138137419780
  2       0.095432454126
  3       0.525833328587
  4      -3.385849805654
  5      -4.656987744362
  6      -2.635020197130
  7      -0.000000000002
  8       0.000000000016
  9      -0.000000000001
 10       0.000000000002
 11      -0.000000000021
 12       0.000000000001
 13      -0.000000000002
 14       0.000000000013
 15      -0.000000000000
 16       0.000000000000
 17      -0.000000000000
 18      -0.000000000000
 19       0.000000000000
 20       0.000000000000
 21      -0.000000000000
 22       0.000000000000
 23       0.000000000000
 24      -0.000000000000
 25      -0.000000000000
 26      -0.000000000000
 27      -0.000000000000
 28       0.000000000000
 29      -0.000000000000
 30      -0.000000000000
 31      -0.000000000000
 32      -0.000000000000
 33       0.679632500207
 34       0.000000000000
 35      -0.000000000004
 36       0.000000000000
 Sym=     1a
 Ene= 7.84479960837042E+00
 Spin= Alpha
 Occup= 0.000000
  1      -0.000000000000
  2       0.000000000000
  3      -0.000000000000
  4       0.000000000000
  5      -0.000000000000
  6      -0.000000000000
  7      -0.000000000000
  8       0.000000000000
  9       0.000000000000
 10       0.000000000000
 11      -0.000000000000
 12      -0.000000000000
 13      -0.000000000000
 14       0.000000000000
 15       0.000000000000
 16      -0.000000000000
 17       0.000000000000
 18       0.000000000000
 19       0.000000000000
 20      -0.000000000000
 21      -0.000000000000
 22      -0.000000000000
 23      -0.000000000000
 24      -0.000000000000
 25       0.000000000000
 26       0.024427862169
 27      -0.016443640953
 28      -0.030914399842
 29      -0.418874701203
 30       0.175965190246
 31       0.163220341275
 32      -0.874709404781
 33       0.000000000000
 34       0.000000000000
 35      -0.000000000000
 36      -0.000000000000
 Sym=     1a
 Ene= 7.84479960837381E+00
 Spin= Alpha
 Occup= 0.000000
  1       0.000000000000
  2      -0.000000000000
  3       0.000000000000
  4      -0.000000000000
  5      -0.000000000000
  6      -0.000000000000
  7      -0.000000000000
  8      -0.000000000000
  9       0.000000000000
 10      -0.000000000000
 11       0.000000000000
 12      -0.000000000000
 13       0.000000000000
 14      -0.000000000000
 15       0.000000000000
 16       0.000000000000
 17       0.000000000000
 18       0.000000000000
 19      -0.000000000000
 20      -0.000000000000
 21       0.000000000000
 22       0.000000000000
 23       0.000000000000
 24      -0.000000000000
 25       0.000000000000
 26      -0.622145942794
 27       0.474359415005
 28       0.044570268604
 29       0.534412342076
 30       0.192164100579
 31       0.116055729705
 32      -0.223469320278
 33       0.000000000000
 34       0.000000000000
 35       0.000000000000
 36      -0.000000000000
 Sym=     1a
 Ene= 7.84479960837387E+00
 Spin= Alpha
 Occup= 0.000000
  1       0.000000000000
  2       0.000000000000
  3      -0.000000000000
  4       0.000000000000
  5       0.000000000000
  6       0.000000000000
  7       0.000000000000
  8       0.000000000000
  9       0.000000000000
 10      -0.000000000000
 11      -0.000000000000
 12       0.000000000000
 13       0.000000000000
 14      -0.000000000000
 15      -0.000000000000
 16       0.000000000000
 17       0.000000000000
 18       0.000000000000
 19       0.000000000000
 20       0.000000000000
 21      -0.000000000000
 22       0.000000000000
 23      -0.000000000000
 24      -0.000000000000
 25      -0.000000000000
 26      -0.432234272090
 27      -0.845803776507
 28       0.120576015999
 29       0.138746447949
 30       0.252407901249
 31       0.009135699775
 32      -0.014392484220
 33      -0.000000000000
 34      -0.000000000000
 35       0.000000000000
 36       0.000000000000
 Sym=     1a
 Ene= 7.84479960837413E+00
 Spin= Alpha
 Occup= 0.000000
  1       0.000000000000
  2       0.000000000000
  3      -0.000000000000
  4       0.000000000000
  5       0.000000000000
  6      -0.000000000000
  7      -0.000000000000
  8       0.000000000000
  9       0.000000000000
 10       0.000000000000
 11       0.000000000000
 12      -0.000000000000
 13      -0.000000000000
 14       0.000000000000
 15       0.000000000000
 16      -0.000000000000
 17      -0.000000000000
 18      -0.000000000000
 19       0.000000000000
 20       0.000000000000
 21       0.000000000000
 22       0.000000000000
 23      -0.000000000000
 24      -0.000000000000
 25      -0.000000000000
 26      -0.320525531986
 27      -0.135551901956
 28      -0.539382473072
 29       0.000136836068
 30      -0.754389299652
 31       0.036596689844
 32      -0.132336922676
 33       0.000000000000
 34       0.000000000000
 35      -0.000000000000
 36      -0.000000000000
 Sym=     1a
 Ene= 7.84479960837435E+00
 Spin= Alpha
 Occup= 0.000000
  1       0.000000000000
  2      -0.000000000000
  3       0.000000000000
  4      -0.000000000000
  5      -0.000000000000
  6      -0.000000000000
  7       0.000000000000
  8       0.000000000000
  9      -0.000000000000
 10      -0.000000000000
 11       0.000000000000
 12       0.000000000000
 13       0.000000000000
 14      -0.000000000000
 15      -0.000000000000
 16      -0.000000000000
 17       0.000000000000
 18       0.000000000000
 19      -0.000000000000
 20      -0.000000000000
 21       0.000000000000
 22      -0.000000000000
 23       0.000000000000
 24       0.000000000000
 25       0.000000000000
 26       0.251152125216
 27      -0.060576723253
 28      -0.803384050509
 29       0.245403774558
 30       0.476331606938
 31       0.019284323160
 32       0.018451030664
 33       0.000000000000
 34      -0.000000000000
 35       0.000000000000
 36       0.000000000000
 Sym=     1a
 Ene= 7.84479960837442E+00
 Spin= Alpha
 Occup= 0.000000
  1       0.000000000000
  2      -0.000000000000
  3      -0.000000000000
  4       0.000000000000
  5       0.000000000000
  6       0.000000000000
  7      -0.000000000000
  8       0.000000000000
  9       0.000000000000
 10      -0.000000000000
 11      -0.000000000000
 12       0.000000000000
 13       0.000000000000
 14       0.000000000000
 15      -0.000000000000
 16      -0.000000000000
 17       0.000000000000
 18       0.000000000000
 19      -0.000000000000
 20      -0.000000000000
 21       0.000000000000
 22      -0.000000000000
 23      -0.000000000000
 24       0.000000000000
 25       0.000000000000
 26      -0.509603286383
 27       0.192910451970
 28      -0.214848340049
 29      -0.669055736940
 30       0.268969116669
 31      -0.157613370815
 32       0.334825774536
 33      -0.000000000000
 34      -0.000000000000
 35      -0.000000000000
 36       0.000000000000
 Sym=     1a
 Ene= 7.84479960838868E+00
 Spin= Alpha
 Occup= 0.000000
  1      -0.000000000000
  2      -0.000000000000
  3       0.000000000000
  4      -0.000000000000
  5      -0.000000000000
  6       0.000000000000
  7       0.000000000000
  8       0.000000000002
  9      -0.000000000000
 10      -0.000000000000
 11      -0.000000000003
 12       0.000000000000
 13       0.000000000000
 14       0.000000000002
 15      -0.000000000000
 16      -0.000000000000
 17      -0.000000000000
 18      -0.000000000000
 19       0.000000000000
 20      -0.000000000000
 21       0.000000000000
 22       0.000000000000
 23       0.000000000000
 24      -0.000000000000
 25       0.000000000000
 26       0.001312744112
 27       0.008391883710
 28      -0.000145993613
 29       0.108803704383
 30      -0.007749886424
 31      -0.966050490036
 32      -0.234042678907
 33      -0.000000000000
 34      -0.000000000000
 35      -0.000000000001
 36       0.000000000000
 Sym=     1a
 Ene= 9.30943213525249E+00
 Spin= Alpha
 Occup= 0.000000
  1      -0.000000000000
  2      -0.000000000000
  3       0.000000000000
  4       0.000000000000
  5       0.000000000000
  6       0.000000000000
  7      -0.000000000000
  8      -0.000000000000
  9       0.000000000000
 10       0.000000000000
 11       0.000000000000
 12      -0.000000000000
 13      -0.000000000000
 14      -0.000000000000
 15       0.000000000000
 16       0.271412843539
 17      -0.972067414286
 18       0.167149733177
 19      -0.384970525445