[Molden Format]
[Title]
 Molden file created by orca_2mkl for BaseName=/data01/Nikolayandreadi/heavy/sCC/Ac

[Atoms] AU
Ac   1  89          0.0415890928         1.5388172189        -3.6027401976 
[GTO]
  1 0
s   9 1.0 
 55109808.7412440032     14257.7713661335
 25049913.0642019995     -5151.0918968321
 11386324.1200920008      8141.6734319397
  5175601.8727690000       367.7957557878
  2352546.3058039998      3850.3989281956
  1069339.2299110000      1838.0599913906
   486063.2863230000      2498.2579619160
   220937.8574200000      1918.4911854425
   100426.2988270000      1976.3677811030
s   1 1.0 
    45648.3176490000      2225.7617489804
s   1 1.0 
    20749.2352950000      1232.1445599454
s   1 1.0 
     9431.4705890000       682.0946659463
s   1 1.0 
     4287.0320860000       377.5962240397
s   1 1.0 
     1948.6509480000       209.0309681559
s   1 1.0 
      885.7504310000       115.7160555982
s   1 1.0 
      402.6138320000        64.0584772366
s   1 1.0 
      183.0062870000        35.4617039283
s   1 1.0 
       83.1846760000        19.6310075135
s   1 1.0 
       37.8112160000        10.8673980720
s   1 1.0 
       17.1869170000         6.0160103808
s   1 1.0 
        7.8122350000         3.3303629495
s   1 1.0 
        3.5510160000         1.8436333860
s   1 1.0 
        1.6140980000         1.0206045891
s   1 1.0 
        0.7336810000         0.5649897208
s   1 1.0 
        0.3334910000         0.3127686249
s   1 1.0 
        0.1515870000         0.1731436469
s   1 1.0 
        0.0689030000         0.0958492438
s   1 1.0 
        0.0313200000         0.0530611193
s   1 1.0 
        0.0142360000         0.0293731874
p   8 1.0 
   782789.9000960001    105400.6380222760
   326162.4583730000      9339.8703413204
   135901.0243220000     31114.7166186033
    56625.4268010000     15807.4263964350
    23593.9278340000     15422.4005191925
     9830.8032640000     12674.9472511059
     4096.1680270000     12080.1456614186
     1706.7366780000     11164.2062033065
p   1 1.0 
      711.1402820000      5234.6082754400
p   1 1.0 
      296.3084510000      1752.3471056201
p   1 1.0 
      123.4618550000       586.6189460208
p   1 1.0 
       51.4424390000       196.3776356850
p   1 1.0 
       21.4343500000        65.7397404951
p   1 1.0 
        8.9309790000        22.0071560566
p   1 1.0 
        3.7212410000         7.3671554630
p   1 1.0 
        1.5505170000         2.4662423617
p   1 1.0 
        0.6460490000         0.8256042333
p   1 1.0 
        0.2691870000         0.2763806863
p   1 1.0 
        0.1121610000         0.0925214496
p   1 1.0 
        0.0467340000         0.0309728579
d   7 1.0 
    37896.8365590000     43506.3623126937
    15158.7346230000     21857.0905485274
     6063.4938490000     24630.8084267633
     2425.3975400000     23119.8187386178
      970.1590160000     25018.7518608141
      388.0636060000     22853.9144711695
      155.2254430000     15499.7964819019
d   1 1.0 
       62.0901770000      3915.2559196064
d   1 1.0 
       24.8360710000       787.7077997530
d   1 1.0 
        9.9344280000       158.4784080703
d   1 1.0 
        3.9737710000        31.8841649022
d   1 1.0 
        1.5895090000         6.4147586096
d   1 1.0 
        0.6358030000         1.2905789757
d   1 1.0 
        0.2543210000         0.2596503863
d   1 1.0 
        0.1017290000         0.0522394313
d   1 1.0 
        0.0406910000         0.0105097460
f   6 1.0 
     3860.7881580000     45311.1110738893
     1484.9185220000     38972.8076748077
      571.1225090000     44376.6887792609
      219.6625030000     42822.5096425147
       84.4855780000     30269.0683434645
       32.4944530000     11761.6594792960
f   1 1.0 
       12.4978670000      1674.4834181961
f   1 1.0 
        4.8068720000       195.0701571938
f   1 1.0 
        1.8487970000        22.7248403933
f   1 1.0 
        0.7110760000         2.6473485595
f   1 1.0 
        0.2734910000         0.3084053601
f   1 1.0 
        0.1051890000         0.0359280225

[5D]
[7F]
[9G]
[MO]
 Sym=     1a
 Ene= -3.93447599953389E+03
 Spin= Alpha
 Occup= 1.000000
  1       0.078450263638
  2       0.061820850428
  3       0.107263365942
  4       0.173848775152
  5       0.263579468390
  6       0.308463344330
  7       0.199488812270
  8       0.034065342574
  9       0.000805452344
 10      -0.000549878241
 11       0.000405615535
 12      -0.000306249896
 13       0.000219243881
 14      -0.000147377043
 15       0.000097476263
 16      -0.000064164038
 17       0.000041386573
 18      -0.000025596849
 19       0.000014465057
 20      -0.000006624790
 21       0.000001784572
 22       0.000000000004
 23      -0.000000000010
 24       0.000000000006
 25      -0.000000000009
 26       0.000000000020
 27      -0.000000000012
 28      -0.000000000001
 29       0.000000000000
 30       0.000000000000
 31      -0.000000000002
 32       0.000000000003
 33      -0.000000000002
 34       0.000000000001
 35      -0.000000000002
 36       0.000000000001
 37      -0.000000000001
 38       0.000000000001
 39      -0.000000000001
 40       0.000000000001
 41      -0.000000000002
 42       0.000000000001
 43      -0.000000000000
 44       0.000000000002
 45      -0.000000000001
 46       0.000000000000
 47      -0.000000000001
 48       0.000000000000
 49      -0.000000000000
 50       0.000000000001
 51      -0.000000000000
 52       0.000000000000
 53      -0.000000000001
 54       0.000000000000
 55      -0.000000000000
 56       0.000000000000
 57      -0.000000000000
 58       0.000000000000
 59      -0.000000000000
 60       0.000000000000
 61      -0.000000001451
 62       0.000000005951
 63       0.000000005416
 64       0.000000000661
 65       0.000000007057
 66       0.000000002624
 67      -0.000000010758
 68      -0.000000009792
 69      -0.000000001196
 70      -0.000000012759
 71      -0.000000002333
 72       0.000000009565
 73       0.000000008706
 74       0.000000001063
 75       0.000000011343
 76       0.000000001230
 77      -0.000000005043
 78      -0.000000004590
 79      -0.000000000561
 80      -0.000000005981
 81      -0.000000000502
 82       0.000000002057
 83       0.000000001873
 84       0.000000000230
 85       0.000000002440
 86       0.000000000299
 87      -0.000000001227
 88      -0.000000001117
 89      -0.000000000137
 90      -0.000000001456
 91      -0.000000000230
 92       0.000000000944
 93       0.000000000859
 94       0.000000000105
 95       0.000000001119
 96       0.000000000119
 97      -0.000000000486
 98      -0.000000000443
 99      -0.000000000054
100      -0.000000000577
101      -0.000000000047
102       0.000000000191
103       0.000000000174
104       0.000000000021
105       0.000000000226
106       0.000000000017
107      -0.000000000070
108      -0.000000000063
109      -0.000000000008
110      -0.000000000083
111       0.000000000000
112       0.000000000000
113      -0.000000000000
114      -0.000000000000
115       0.000000000000
116      -0.000000000000
117       0.000000000001
118      -0.000000000000
119      -0.000000000001
120       0.000000000001
121       0.000000000000
122      -0.000000000000
123       0.000000000001
124      -0.000000000000
125       0.000000000000
126       0.000000000000
127      -0.000000000000
128      -0.000000000000
129       0.000000000000
130      -0.000000000001
131      -0.000000000000
132      -0.000000000000
133      -0.000000000000
134       0.000000000000
135       0.000000000000
136      -0.000000000000
137       0.000000000000
138       0.000000000000
139       0.000000000000
140       0.000000000000
141      -0.000000000000
142      -0.000000000000
143       0.000000000000
144      -0.000000000000
145       0.000000000000
146      -0.000000000000
147      -0.000000000000
148       0.000000000000
149       0.000000000000
150      -0.000000000000
151       0.000000000000
152      -0.000000000000
153      -0.000000000000
154       0.000000000000
155       0.000000000000
156      -0.000000000000
157       0.000000000000
158      -0.000000000000
159       0.000000000000
 Sym=     1a
 Ene= -7.33629638476367E+02
 Spin= Alpha
 Occup= 1.000000
  1       0.032585850337
  2       0.027686228284
  3       0.047061561066
  4       0.083446652770
  5       0.136668295215
  6       0.181020494835
  7       0.086605189295
  8      -0.351894089105
  9      -0.621415034673
 10      -0.184146221050
 11       0.002403786878
 12      -0.002459149918
 13       0.001415247011
 14      -0.000789483669
 15       0.000469935490
 16      -0.000300669613
 17       0.000191583685
 18      -0.000117491024
 19       0.000066232109
 20      -0.000030296139
 21       0.000008156923
 22       0.000000000187
 23      -0.000000000364
 24       0.000000000215
 25       0.000000000316
 26      -0.000000000619
 27       0.000000000367
 28       0.000000000514
 29      -0.000000000984
 30       0.000000000578
 31       0.000000000305
 32      -0.000000000564
 33       0.000000000332
 34       0.000000000025
 35      -0.000000000043
 36       0.000000000023
 37       0.000000000014
 38      -0.000000000026
 39       0.000000000014
 40      -0.000000000001
 41       0.000000000004
 42      -0.000000000000
 43       0.000000000003
 44      -0.000000000017
 45       0.000000000003
 46      -0.000000000007
 47       0.000000000026
 48      -0.000000000008
 49       0.000000000003
 50      -0.000000000014
 51       0.000000000003
 52       0.000000000000
 53       0.000000000004
 54       0.000000000000
 55       0.000000000001
 56      -0.000000000004
 57       0.000000000001
 58      -0.000000000000
 59       0.000000000001
 60      -0.000000000000
 61       0.000000013426
 62      -0.000000054880
 63      -0.000000050087
 64      -0.000000006165
 65      -0.000000065179
 66       0.000000040876
 67      -0.000000167640
 68      -0.000000152485
 69      -0.000000018589
 70      -0.000000198741
 71      -0.000000015144
 72       0.000000062204
 73       0.000000056489
 74       0.000000006849
 75       0.000000073685
 76       0.000000009161
 77      -0.000000037616
 78      -0.000000034172
 79      -0.000000004143
 80      -0.000000044566
 81      -0.000000002461
 82       0.000000010118
 83       0.000000009181
 84       0.000000001093
 85       0.000000011979
 86       0.000000000946
 87      -0.000000003894
 88      -0.000000003528
 89      -0.000000000412
 90      -0.000000004606
 91      -0.000000001836
 92       0.000000007537
 93       0.000000006848
 94       0.000000000826
 95       0.000000008930
 96       0.000000001090
 97      -0.000000004473
 98      -0.000000004066
 99      -0.000000000491
100      -0.000000005301
101      -0.000000000228
102       0.000000000936
103       0.000000000850
104       0.000000000101
105       0.000000001108
106       0.000000000113
107      -0.000000000463
108      -0.000000000421
109      -0.000000000051
110      -0.000000000549
111      -0.000000000008
112      -0.000000000003
113       0.000000000002
114      -0.000000000002
115      -0.000000000005
116       0.000000000010
117       0.000000000003
118      -0.000000000002
119      -0.000000000008
120       0.000000000010
121       0.000000000006
122      -0.000000000005
123       0.000000000009
124       0.000000000002
125       0.000000000004
126       0.000000000009
127      -0.000000000010
128      -0.000000000005
129       0.000000000007
130      -0.000000000012
131      -0.000000000003
132      -0.000000000001
133      -0.000000000002
134       0.000000000003
135       0.000000000002
136      -0.000000000002
137       0.000000000003
138       0.000000000001
139      -0.000000000000
140      -0.000000000000
141      -0.000000000000
142      -0.000000000000
143      -0.000000000000
144       0.000000000000
145       0.000000000000
146      -0.000000000000
147      -0.000000000001
148       0.000000000001
149       0.000000000001
150      -0.000000000001
151       0.000000000001
152       0.000000000000
153      -0.000000000000
154       0.000000000000
155       0.000000000000
156      -0.000000000000
157       0.000000000000
158      -0.000000000000
159      -0.000000000001
 Sym=     1a
 Ene= -6.21545522396170E+02
 Spin= Alpha
 Occup= 1.000000
  1      -0.000000000077
  2      -0.000000000066
  3      -0.000000000112
  4      -0.000000000199
  5      -0.000000000324
  6      -0.000000000427
  7      -0.000000000224
  8       0.000000000765
  9       0.000000001547
 10       0.000000000658
 11      -0.000000000034
 12      -0.000000000097
 13      -0.000000000018
 14       0.000000000051
 15      -0.000000000002
 16      -0.000000000009
 17      -0.000000000005
 18      -0.000000000000
 19       0.000000000004
 20      -0.000000000000
 21       0.000000000000
 22       0.014900010731
 23      -0.120312451936
 24       0.123349364795
 25       0.025887930463
 26      -0.209036117294
 27       0.214312582548
 28       0.039510895932
 29      -0.319036869909
 30       0.327089961035
 31       0.021078005592
 32      -0.170197631264
 33       0.174493739804
 34       0.000761399557
 35      -0.006148038766
 36       0.006303226939
 37       0.000378122337
 38      -0.003053207639
 39       0.003130276455
 40      -0.000262795037
 41       0.002121979569
 42      -0.002175542270
 43       0.000161191072
 44      -0.001301562387
 45       0.001334416227
 46      -0.000096902115
 47       0.000782451078
 48      -0.000802201655
 49       0.000057461245
 50      -0.000463979753
 51       0.000475691486
 52      -0.000032135835
 53       0.000259485840
 54      -0.000266035735
 55       0.000015535305
 56      -0.000125442207
 57       0.000128608613
 58      -0.000004864223
 59       0.000039276934
 60      -0.000040268356
 61       0.000000000035
 62      -0.000000000166
 63       0.000000000350
 64       0.000000000220
 65       0.000000000203
 66      -0.000000000063
 67      -0.000000000013
 68       0.000000000031
 69       0.000000000009
 70      -0.000000000094
 71       0.000000000069
 72       0.000000000008
 73      -0.000000000003
 74       0.000000000007
 75       0.000000000124
 76      -0.000000000030
 77       0.000000000002
 78      -0.000000000006
 79      -0.000000000008
 80      -0.000000000057
 81       0.000000000006
 82      -0.000000000008
 83       0.000000000013
 84       0.000000000011
 85       0.000000000013
 86      -0.000000000004
 87       0.000000000004
 88      -0.000000000006
 89      -0.000000000006
 90      -0.000000000009
 91       0.000000000006
 92       0.000000000001
 93      -0.000000000000
 94       0.000000000001
 95       0.000000000012
 96      -0.000000000003
 97       0.000000000000
 98      -0.000000000000
 99      -0.000000000001
100      -0.000000000005
101       0.000000000000
102      -0.000000000001
103       0.000000000001
104       0.000000000001
105       0.000000000000
106      -0.000000000000
107       0.000000000000
108       0.000000000000
109      -0.000000000000
110      -0.000000000001
111       0.000000018654
112       0.000000077092
113       0.000000151799
114       0.000000132995
115       0.000000017813
116      -0.000000076683
117       0.000000019565
118       0.000000004136
119       0.000000192293
120      -0.000000265876
121      -0.000000249904
122       0.000000027430
123      -0.000000136925
124      -0.000000110714
125      -0.000000009205
126      -0.000000216124
127       0.000000229541
128       0.000000218349
129      -0.000000032656
130       0.000000159738
131       0.000000107287
132       0.000000000733
133       0.000000051296
134      -0.000000076561
135      -0.000000071751
136       0.000000007169
137      -0.000000036052
138      -0.000000030929
139       0.000000001701
140       0.000000006281
141       0.000000015129
142       0.000000013327
143       0.000000001524
144      -0.000000006480
145       0.000000002277
146       0.000000001372
147       0.000000030199
148      -0.000000030769
149      -0.000000029333
150       0.000000004597
151      -0.000000022430
152      -0.000000014668
153       0.000000000261
154       0.000000000812
155       0.000000002577
156       0.000000002283
157       0.000000000213
158      -0.000000000890
159       0.000000000448
 Sym=     1a
 Ene= -6.21545522334520E+02
 Spin= Alpha
 Occup= 1.000000
  1       0.000000000035
  2       0.000000000030
  3       0.000000000051
  4       0.000000000091
  5       0.000000000148
  6       0.000000000195
  7       0.000000000099
  8      -0.000000000361
  9      -0.000000000696
 10      -0.000000000277
 11       0.000000000013
 12       0.000000000048
 13       0.000000000005
 14      -0.000000000020
 15      -0.000000000002
 16       0.000000000005
 17       0.000000000002
 18       0.000000000000
 19      -0.000000000002
 20       0.000000000000
 21      -0.000000000000
 22      -0.131603233886
 23       0.071972252896
 24       0.086097304490
 25      -0.228653215833
 26       0.125047740760
 27       0.149589223340
 28      -0.348977044066
 29       0.190851419934
 30       0.228307328896
 31      -0.186169912328
 32       0.101814124314
 33       0.121795849067
 34      -0.006725004484
 35       0.003677825478
 36       0.004399624155
 37      -0.003339737672
 38       0.001826463043
 39       0.002184919107
 40       0.002321117847
 41      -0.001269391893
 42      -0.001518518803
 43      -0.001423708104
 44       0.000778609132
 45       0.000931416517
 46       0.000855880580
 47      -0.000468070985
 48      -0.000559933152
 49      -0.000507522182
 50       0.000277557883
 51       0.000332030538
 52       0.000283837419
 53      -0.000155227326
 54      -0.000185691754
 55      -0.000137214392
 56       0.000075040932
 57       0.000089768234
 58       0.000042962898
 59      -0.000023495900
 60      -0.000028107133
 61      -0.000000000317
 62       0.000000000123
 63       0.000000000063
 64      -0.000000000042
 65      -0.000000000369
 66       0.000000000048
 67      -0.000000000082
 68       0.000000000057
 69       0.000000000061
 70       0.000000000050
 71      -0.000000000069
 72       0.000000000082
 73      -0.000000000054
 74      -0.000000000060
 75      -0.000000000082
 76       0.000000000038
 77      -0.000000000042
 78       0.000000000023
 79       0.000000000027
 80       0.000000000044
 81      -0.000000000018
 82       0.000000000013
 83      -0.000000000002
 84      -0.000000000003
 85      -0.000000000019
 86       0.000000000010
 87      -0.000000000007
 88       0.000000000002
 89       0.000000000001
 90       0.000000000011
 91      -0.000000000007
 92       0.000000000009
 93      -0.000000000006
 94      -0.000000000004
 95      -0.000000000008
 96       0.000000000003
 97      -0.000000000004
 98       0.000000000002
 99       0.000000000001
100       0.000000000004
101      -0.000000000001
102       0.000000000001
103       0.000000000000
104       0.000000000002
105      -0.000000000001
106       0.000000000000
107      -0.000000000001
108       0.000000000000
109      -0.000000000000
110       0.000000000001
111       0.000000061770
112       0.000000049086
113       0.000000060805
114      -0.000000108404
115       0.000000093691
116       0.000000054669
117       0.000000142045
118      -0.000000235251
119       0.000000112387
120       0.000000084329
121      -0.000000013045
122      -0.000000300724
123       0.000000087348
124      -0.000000169175
125       0.000000222553
126      -0.000000127396
127      -0.000000102017
128       0.000000042329
129       0.000000280541
130      -0.000000103441
131       0.000000133867
132      -0.000000066161
133       0.000000029892
134       0.000000021907
135      -0.000000001229
136      -0.000000084896
137       0.000000022872
138      -0.000000049707
139       0.000000006701
140       0.000000004043
141       0.000000005242
142      -0.000000009936
143       0.000000009925
144       0.000000004664
145       0.000000013816
146      -0.000000030310
147       0.000000017822
148       0.000000014391
149      -0.000000006436
150      -0.000000038119
151       0.000000014553
152      -0.000000017646
153       0.000000001242
154       0.000000000533
155       0.000000000743
156      -0.000000001533
157       0.000000001798
158       0.000000000650
159       0.000000002291
 Sym=     1a
 Ene= -6.21545518491990E+02
 Spin= Alpha
 Occup= 1.000000
  1       0.000000000003
  2       0.000000000003
  3       0.000000000004
  4       0.000000000008
  5       0.000000000013
  6       0.000000000017
  7       0.000000000007
  8      -0.000000000038
  9      -0.000000000059
 10      -0.000000000010
 11       0.000000000006
 12      -0.000000000003
 13       0.000000000003
 14      -0.000000000003
 15       0.000000000002
 16      -0.000000000001
 17       0.000000000001
 18      -0.000000000000
 19       0.000000000000
 20      -0.000000000000
 21      -0.000000000000
 22      -0.111223932583
 23      -0.101277290405
 24      -0.085348484585
 25      -0.193245317048
 26      -0.175963586610
 27      -0.148288183836
 28      -0.294936008185
 29      -0.268560183587
 30      -0.226321266739
 31      -0.157340464602
 32      -0.143269668287
 33      -0.120736336989
 34      -0.005683779269
 35      -0.005175484713
 36      -0.004361488994
 37      -0.002822721456
 38      -0.002570288370
 39      -0.002166035668
 40       0.001961577011
 41       0.001786155195
 42       0.001505230164
 43      -0.001203164182
 44      -0.001095566447
 45      -0.000923256653
 46       0.000723406861
 47       0.000658713326
 48       0.000555111492
 49      -0.000428944504
 50      -0.000390584437
 51      -0.000329153656
 52       0.000239854835
 53       0.000218404864
 54       0.000184054317
 55      -0.000115980514
 56      -0.000105608495
 57      -0.000088998490
 58       0.000036306938
 59       0.000033060045
 60       0.000027860388
 61       0.000000000133
 62       0.000000000182
 63      -0.000000000042
 64       0.000000000264
 65      -0.000000000093
 66       0.000000000015
 67       0.000000000017
 68      -0.000000000004
 69       0.000000000025
 70      -0.000000000008
 71      -0.000000000004
 72       0.000000000000
 73      -0.000000000000
 74      -0.000000000001
 75       0.000000000002
 76      -0.000000000001
 77      -0.000000000005
 78       0.000000000002
 79      -0.000000000005
 80       0.000000000001
 81       0.000000000004
 82       0.000000000007
 83      -0.000000000003
 84       0.000000000009
 85      -0.000000000004
 86      -0.000000000002
 87      -0.000000000004
 88       0.000000000002
 89      -0.000000000004
 90       0.000000000002
 91      -0.000000000000
 92       0.000000000000
 93      -0.000000000000
 94       0.000000000001
 95      -0.000000000000
 96      -0.000000000000
 97      -0.000000000001
 98       0.000000000000
 99      -0.000000000001
100       0.000000000000
101       0.000000000000
102       0.000000000001
103      -0.000000000000
104       0.000000000002
105      -0.000000000000
106       0.000000000000
107      -0.000000000000
108       0.000000000000
109      -0.000000000001
110       0.000000000000
111       0.000000122314
112      -0.000000023956
113      -0.000000021798
114      -0.000000018777
115      -0.000000200263
116      -0.000000086988
117       0.000000115636
118      -0.000000094475
119       0.000000018598
120       0.000000016829
121       0.000000014457
122       0.000000154642
123       0.000000067170
124      -0.000000089361
125       0.000000063272
126      -0.000000012489
127      -0.000000011266
128      -0.000000009664
129      -0.000000103557
130      -0.000000044980
131       0.000000059863
132      -0.000000028600
133       0.000000005627
134       0.000000005094
135       0.000000004378
136       0.000000046814
137       0.000000020335
138      -0.000000027050
139       0.000000011632
140      -0.000000002278
141      -0.000000002073
142      -0.000000001786
143      -0.000000019043
144      -0.000000008273
145       0.000000010997
146      -0.000000007918
147       0.000000001564
148       0.000000001409
149       0.000000001209
150       0.000000012958
151       0.000000005628
152      -0.000000007492
153       0.000000001811
154      -0.000000000354
155      -0.000000000323
156      -0.000000000278
157      -0.000000002965
158      -0.000000001288
159       0.000000001712
 Sym=     1a
 Ene= -1.86034183549326E+02
 Spin= Alpha
 Occup= 1.000000
  1       0.015894323897
  2       0.013703959809
  3       0.023083663720
  4       0.042045156990
  5       0.068718616233
  6       0.095984780307
  7       0.035873909624
  8      -0.276547127429
  9      -0.697111978041
 10       0.145352845010
 11       1.000599880961
 12       0.163751161584
 13       0.016719553867
 14      -0.012804402934
 15       0.009215327879
 16      -0.006393333503
 17       0.004221751050
 18      -0.002637803273
 19       0.001499190239
 20      -0.000688493258
 21       0.000185716244
 22       0.000000000770
 23      -0.000000001424
 24       0.000000000845
 25       0.000000001427
 26      -0.000000002637
 27       0.000000001565
 28       0.000000002294
 29      -0.000000004255
 30       0.000000002527
 31      -0.000000000739
 32       0.000000001495
 33      -0.000000000911
 34      -0.000000006220
 35       0.000000011431
 36      -0.000000006721
 37      -0.000000002142
 38       0.000000003830
 39      -0.000000002332
 40       0.000000000199
 41      -0.000000000367
 42       0.000000000197
 43      -0.000000000164
 44       0.000000000294
 45      -0.000000000155
 46       0.000000000035
 47      -0.000000000055
 48       0.000000000023
 49      -0.000000000031
 50       0.000000000059
 51      -0.000000000029
 52       0.000000000040
 53      -0.000000000078
 54       0.000000000042
 55      -0.000000000007
 56       0.000000000012
 57      -0.000000000006
 58       0.000000000005
 59      -0.000000000010
 60       0.000000000005
 61      -0.000001035183
 62       0.000004244110
 63       0.000003862017
 64       0.000000471351
 65       0.000005032717
 66      -0.000001505791
 67       0.000006170489
 68       0.000005617575
 69       0.000000686511
 70       0.000007318510
 71      -0.000000664910
 72       0.000002724879
 73       0.000002480540
 74       0.000000303120
 75       0.000003231757
 76       0.000000070372
 77      -0.000000288417
 78      -0.000000262545
 79      -0.000000032110
 80      -0.000000342072
 81      -0.000000050553
 82       0.000000206861
 83       0.000000188593
 84       0.000000023170
 85       0.000000245516
 86       0.000000000768
 87      -0.000000002984
 88      -0.000000002854
 89      -0.000000000414
 90      -0.000000003620
 91      -0.000000012259
 92       0.000000050219
 93       0.000000045738
 94       0.000000005605
 95       0.000000059577
 96       0.000000012293
 97      -0.000000050353
 98      -0.000000045858
 99      -0.000000005614
100      -0.000000059728
101      -0.000000000718
102       0.000000002926
103       0.000000002678
104       0.000000000334
105       0.000000003478
106       0.000000000828
107      -0.000000003390
108      -0.000000003090
109      -0.000000000380
110      -0.000000004023
111       0.000000000036
112       0.000000000080
113      -0.000000000021
114       0.000000000038
115       0.000000000048
116      -0.000000000100
117      -0.000000000035
118      -0.000000000041
119      -0.000000000074
120       0.000000000064
121       0.000000000012
122      -0.000000000058
123       0.000000000094
124       0.000000000029
125       0.000000000066
126       0.000000000118
127      -0.000000000114
128      -0.000000000037
129       0.000000000092
130      -0.000000000162
131      -0.000000000046
132      -0.000000000017
133      -0.000000000032
134       0.000000000028
135       0.000000000007
136      -0.000000000025
137       0.000000000041
138       0.000000000012
139      -0.000000000002
140      -0.000000000004
141       0.000000000006
142       0.000000000005
143      -0.000000000003
144       0.000000000007
145       0.000000000002
146      -0.000000000007
147      -0.000000000012
148       0.000000000011
149       0.000000000004
150      -0.000000000009
151       0.000000000016
152       0.000000000003
153       0.000000000000
154       0.000000000001
155      -0.000000000000
156       0.000000000000
157       0.000000000001
158      -0.000000000001
159       0.000000000005
 Sym=     1a
 Ene= -1.53990091961964E+02
 Spin= Alpha
 Occup= 1.000000
  1       0.000000000015
  2       0.000000000013
  3       0.000000000022
  4       0.000000000040
  5       0.000000000064
  6       0.000000000091
  7       0.000000000032
  8      -0.000000000265
  9      -0.000000000689
 10       0.000000000234
 11       0.000000001001
 12      -0.000000000033
 13       0.000000000031
 14      -0.000000000043
 15       0.000000000021
 16      -0.000000000011
 17       0.000000000010
 18      -0.000000000004
 19       0.000000000000
 20      -0.000000000001
 21       0.000000000001
 22      -0.061720671348
 23      -0.056199105646
 24      -0.047395169886
 25      -0.115248061615
 26      -0.104937905709
 27      -0.088498736961
 28      -0.180205101389
 29      -0.164083852455
 30      -0.138379107181
 31       0.069330270357
 32       0.063127945672
 33       0.053238564646
 34       0.475944933158
 35       0.433366633855
 36       0.365477083308
 37       0.171756012960
 38       0.156390624188
 39       0.131891070581
 40      -0.005053925992
 41      -0.004601798952
 42      -0.003880898789
 43       0.004417877850
 44       0.004022652036
 45       0.003392478678
 46      -0.002546343690
 47      -0.002318546359
 48      -0.001955331761
 49       0.001441953206
 50       0.001312955261
 51       0.001107272751
 52      -0.000798522057
 53      -0.000727085825
 54      -0.000613183347
 55       0.000385059612
 56       0.000350611967
 57       0.000295686444
 58      -0.000120588943
 59      -0.000109800989
 60      -0.000092599992
 61      -0.000000001566
 62      -0.000000002166
 63       0.000000000473
 64      -0.000000003098
 65       0.000000001035