[Molden Format]
[Title]
 Molden file created by orca_2mkl for BaseName=/data01/Nikolayandreadi/heavy/simpleIons/Cl_-

[Atoms] AU
Cl   1  17         -1.8897261339         3.7794522678         0.0000000000 
[GTO]
  1 0
s   7 1.0 
    69507.9909450000         4.1142286333
    10426.1568800000         4.2286655222
     2373.2334061000         5.8493829067
      671.5642007100         8.3358677251
      218.4199979000        10.0089622684
       77.5722497100         8.2783277553
       28.8888152800         2.9822029766
s   1 1.0 
      127.1052718500        26.9794296956
s   1 1.0 
       39.3395829600        11.1952141621
s   1 1.0 
        7.6740680000         3.2860890225
s   1 1.0 
        3.8745627600        -1.9682357562
s   1 1.0 
        1.8385832600         1.1253110111
s   1 1.0 
        0.5022905800        -0.4252324193
s   1 1.0 
        0.1796272300         0.1966478587
p   6 1.0 
      666.5042328400        13.1758105786
      157.6424169000        16.0544655669
       50.2625209800        17.4320614645
       18.5360781100        14.3789566857
        7.2940532800         7.6571902731
        2.9433249000         1.9874071930
p   1 1.0 
        1.0404970800         1.4979287975
p   1 1.0 
        0.3845641500        -0.4316692201
p   1 1.0 
        0.1306964300         0.1120133392
d   2 1.0 
        4.6100000000         7.5524217504
        1.0110000000         2.6539585854
d   1 1.0 
        0.3390000000         0.4293579962
f   1 1.0 
        0.7060000000         2.6050175686
s   1 1.0 
        0.0598757433         0.0862677122
p   1 1.0 
        0.0435654767         0.0283705775

[5D]
[7F]
[9G]
[MO]
 Sym=     1a
 Ene= -1.04873860516562E+02
 Spin= Alpha
 Occup= 2.000000
  1      -0.939478135826
  2      -0.013319869726
  3      -0.030226542340
  4      -0.051278609646
  5      -0.023859860196
  6      -0.009048498296
  7      -0.002472680314
  8      -0.001185822116
  9       0.000000000000
 10      -0.000000000000
 11      -0.000000000000
 12      -0.000000000000
 13       0.000000000000
 14       0.000000000000
 15      -0.000000000000
 16       0.000000000000
 17       0.000000000000
 18       0.000000000000
 19       0.000000000000
 20      -0.000000000000
 21      -0.000000000000
 22      -0.000000000000
 23      -0.000000000000
 24       0.000000000000
 25      -0.000000000000
 26       0.000000000000
 27      -0.000000000000
 28       0.000000000000
 29      -0.000000000000
 30       0.000000000000
 31      -0.000000000000
 32      -0.000000000000
 33      -0.000000000000
 34      -0.000000000000
 35       0.000000000000
 36      -0.000000000000
 37      -0.000000000000
 38       0.000347880379
 39      -0.000000000000
 40      -0.000000000000
 41       0.000000000000
 Sym=     1a
 Ene= -1.02962131066240E+01
 Spin= Alpha
 Occup= 2.000000
  1       0.277079030794
  2       0.031024859307
  3       0.119400925140
  4      -0.284331419375
  5       0.554936906009
  6      -0.284306501353
  7       0.014943492323
  8       0.002856142418
  9      -0.000000000000
 10       0.000000000001
 11       0.000000000001
 12      -0.000000000000
 13      -0.000000000000
 14       0.000000000000
 15      -0.000000000000
 16       0.000000000000
 17       0.000000000000
 18      -0.000000000000
 19       0.000000000000
 20       0.000000000000
 21      -0.000000000000
 22       0.000000000000
 23       0.000000000000
 24       0.000000000000
 25      -0.000000000000
 26       0.000000000000
 27      -0.000000000000
 28      -0.000000000000
 29      -0.000000000000
 30       0.000000000000
 31      -0.000000000000
 32       0.000000000000
 33      -0.000000000000
 34      -0.000000000000
 35       0.000000000000
 36      -0.000000000001
 37      -0.000000000001
 38      -0.000975587222
 39       0.000000000000
 40      -0.000000000000
 41      -0.000000000000
 Sym=     1a
 Ene= -7.69761789917101E+00
 Spin= Alpha
 Occup= 2.000000
  1      -0.000000000000
  2       0.000000000000
  3      -0.000000000000
  4       0.000000000000
  5      -0.000000000001
  6      -0.000000000001
  7      -0.000000000001
  8      -0.000000000000
  9      -0.021626866950
 10       0.970775334213
 11       0.051165416231
 12      -0.001319401332
 13       0.059224587246
 14       0.003121474713
 15      -0.000121369739
 16       0.005447980494
 17       0.000287139753
 18      -0.000054657479
 19       0.002453435950
 20       0.000129310117
 21      -0.000000000000
 22      -0.000000000000
 23      -0.000000000000
 24       0.000000000000
 25      -0.000000000000
 26      -0.000000000000
 27      -0.000000000000
 28       0.000000000000
 29      -0.000000000000
 30       0.000000000000
 31       0.000000000000
 32       0.000000000000
 33      -0.000000000000
 34      -0.000000000000
 35       0.000000000000
 36      -0.000000000000
 37      -0.000000000000
 38      -0.000000000000
 39       0.000016468029
 40      -0.000739208172
 41      -0.000038960501
 Sym=     1a
 Ene= -7.69761789915660E+00
 Spin= Alpha
 Occup= 2.000000
  1       0.000000000000
  2       0.000000000000
  3       0.000000000000
  4       0.000000000000
  5       0.000000000001
  6       0.000000000001
  7       0.000000000001
  8       0.000000000001
  9      -0.633006698142
 10       0.024778133320
 11      -0.737684847970
 12      -0.038618163340
 13       0.001511652250
 14      -0.045004316757
 15      -0.003552426625
 16       0.000139054612
 17      -0.004139879251
 18      -0.001599794860
 19       0.000062621660
 20      -0.001864347457
 21       0.000000000000
 22      -0.000000000000
 23      -0.000000000000
 24      -0.000000000000
 25       0.000000000000
 26      -0.000000000000
 27       0.000000000000
 28       0.000000000000
 29       0.000000000000
 30      -0.000000000000
 31       0.000000000000
 32      -0.000000000000
 33       0.000000000000
 34       0.000000000000
 35      -0.000000000000
 36       0.000000000000
 37       0.000000000000
 38      -0.000000000000
 39       0.000482010315
 40      -0.000018867598
 41       0.000561718710
 Sym=     1a
 Ene= -7.69761789913909E+00
 Spin= Alpha
 Occup= 2.000000
  1       0.000000000000
  2       0.000000000001
  3      -0.000000000001
  4       0.000000000001
  5       0.000000000006
  6       0.000000000008
  7       0.000000000006
  8       0.000000000003
  9      -0.737783958514
 10      -0.049715845576
 11       0.631421836781
 12      -0.045010363245
 13      -0.003033040015
 14       0.038521474893
 15      -0.004140435458
 16      -0.000279004778
 17       0.003543532402
 18      -0.001864597939
 19      -0.000125646623
 20       0.001595789448
 21      -0.000000000000
 22       0.000000000000
 23       0.000000000000
 24       0.000000000000
 25      -0.000000000000
 26       0.000000000000
 27       0.000000000000
 28      -0.000000000000
 29      -0.000000000000
 30       0.000000000000
 31      -0.000000000000
 32       0.000000000000
 33      -0.000000000000
 34      -0.000000000001
 35       0.000000000000
 36      -0.000000000002
 37      -0.000000000001
 38      -0.000000000001
 39       0.000561794179
 40       0.000037856709
 41      -0.000480803504
 Sym=     1a
 Ene= -7.39825989880809E-01
 Spin= Alpha
 Occup= 2.000000
  1      -0.081851551694
  2      -0.010209297605
  3      -0.039488741659
  4       0.096882219471
  5      -0.332205918238
  6       0.172551626774
  7       0.676019273179
  8      -0.487273343666
  9      -0.000000000000
 10       0.000000000000
 11       0.000000000000
 12       0.000000000000
 13       0.000000000000
 14      -0.000000000000
 15       0.000000000000
 16       0.000000000001
 17      -0.000000000001
 18       0.000000000000
 19      -0.000000000000
 20      -0.000000000000
 21       0.000000000000
 22      -0.000000000000
 23      -0.000000000000
 24      -0.000000000000
 25       0.000000000000
 26      -0.000000000000
 27      -0.000000000000
 28       0.000000000000
 29       0.000000000000
 30      -0.000000000000
 31       0.000000000000
 32      -0.000000000000
 33       0.000000000000
 34       0.000000000001
 35      -0.000000000000
 36       0.000000000002
 37       0.000000000001
 38      -0.046401095141
 39       0.000000000000
 40      -0.000000000000
 41       0.000000000000
 Sym=     1a
 Ene= -1.49707939084713E-01
 Spin= Alpha
 Occup= 2.000000
  1      -0.000000000000
  2       0.000000000000
  3      -0.000000000000
  4      -0.000000000000
  5      -0.000000000001
  6      -0.000000000001
  7      -0.000000000001
  8      -0.000000000001
  9       0.155794704420
 10      -0.002049847980
 11       0.209326454850
 12      -0.141402206746
 13       0.001860480617
 14      -0.189988631233
 15       0.302790041693
 16      -0.003983919463
 17       0.406830041031
 18      -0.223896581752
 19       0.002945889320
 20      -0.300828438847
 21       0.000000000000
 22      -0.000000000000
 23       0.000000000000
 24      -0.000000000000
 25       0.000000000000
 26       0.000000000000
 27      -0.000000000000
 28      -0.000000000000
 29       0.000000000000
 30       0.000000000000
 31       0.000000000000
 32       0.000000000000
 33      -0.000000000000
 34       0.000000000000
 35      -0.000000000000
 36      -0.000000000000
 37      -0.000000000000
 38      -0.000000000000
 39      -0.058240145299
 40       0.000766286920
 41      -0.078251717161
 Sym=     1a
 Ene= -1.49707939083111E-01
 Spin= Alpha
 Occup= 2.000000
  1       0.000000000000
  2       0.000000000000
  3      -0.000000000000
  4       0.000000000001
  5       0.000000000004
  6       0.000000000006
  7       0.000000000005
  8       0.000000000003
  9      -0.209264538670
 10      -0.008365904999
 11       0.155666698399
 12       0.189932434942
 13       0.007593052875
 14      -0.141286026071
 15      -0.406709705730
 16      -0.016259299267
 17       0.302541259500
 18       0.300739457511
 19       0.012022857515
 20      -0.223712621003
 21      -0.000000000000
 22       0.000000000000
 23       0.000000000000
 24       0.000000000000
 25      -0.000000000000
 26       0.000000000000
 27       0.000000000000
 28      -0.000000000000
 29      -0.000000000000
 30       0.000000000000
 31      -0.000000000000
 32       0.000000000000
 33      -0.000000000000
 34      -0.000000000001
 35      -0.000000000000
 36      -0.000000000001
 37      -0.000000000001
 38       0.000000000000
 39       0.078228571271
 40       0.003127394635
 41      -0.058192293296
 Sym=     1a
 Ene= -1.49707939073425E-01
 Spin= Alpha
 Occup= 2.000000
  1      -0.000000000000
  2      -0.000000000000
  3       0.000000000000
  4      -0.000000000001
  5      -0.000000000003
  6      -0.000000000004
  7      -0.000000000004
  8      -0.000000000001
  9       0.005488117336
 10      -0.260805610097
 11      -0.006638585038
 12      -0.004981118614
 13       0.236712081689
 14       0.006025304759
 15       0.010666262908
 16      -0.506880781663
 17      -0.012902219288
 18      -0.007887114754
 19       0.374810458542
 20       0.009540481515
 21      -0.000000000000
 22      -0.000000000000
 23      -0.000000000000
 24       0.000000000000
 25       0.000000000000
 26      -0.000000000000
 27      -0.000000000000
 28      -0.000000000000
 29      -0.000000000000
 30       0.000000000000
 31       0.000000000000
 32      -0.000000000000
 33      -0.000000000000
 34       0.000000000000
 35       0.000000000001
 36      -0.000000000000
 37       0.000000000000
 38      -0.000000000003
 39      -0.002051602153
 40       0.097495975142
 41       0.002481677145
 Sym=     1a
 Ene= 2.95501765087887E-01
 Spin= Alpha
 Occup= 0.000000
  1      -0.000000000000
  2      -0.000000000000
  3      -0.000000000000
  4       0.000000000000
  5      -0.000000000000
  6       0.000000000000
  7       0.000000000000
  8      -0.000000000005
  9       0.079797290968
 10       0.010658157506
 11       0.017568205905
 12      -0.115623150910
 13      -0.015443253007
 14      -0.025455642641
 15      -0.022999186972
 16      -0.003071895728
 17      -0.005063510897
 18      -0.734000100516
 19      -0.098037020876
 20      -0.161597777870
 21       0.000000000000
 22      -0.000000000000
 23      -0.000000000000
 24      -0.000000000000
 25      -0.000000000000
 26      -0.000000000000
 27       0.000000000000
 28      -0.000000000000
 29       0.000000000000
 30      -0.000000000000
 31       0.000000000000
 32       0.000000000000
 33      -0.000000000000
 34       0.000000000000
 35      -0.000000000000
 36      -0.000000000000
 37       0.000000000000
 38       0.000000000007
 39       1.311714813741
 40       0.175199720662
 41       0.288787697647
 Sym=     1a
 Ene= 2.95501765088292E-01
 Spin= Alpha
 Occup= 0.000000
  1      -0.000000000000
  2       0.000000000000
  3      -0.000000000000
  4       0.000000000000
  5       0.000000000000
  6       0.000000000001
  7       0.000000000001
  8      -0.000000000000
  9      -0.018308172070
 10       0.068864795949
 11       0.041379905034
 12       0.026527824648
 13      -0.099782393585
 14      -0.059957862558
 15       0.005276784054
 16      -0.019848221642
 17      -0.011926522331
 18       0.168404214940
 19      -0.633439638543
 20      -0.380625132582
 21      -0.000000000000
 22       0.000000000000
 23       0.000000000000
 24       0.000000000000
 25      -0.000000000000
 26       0.000000000000
 27       0.000000000000
 28      -0.000000000000
 29      -0.000000000000
 30       0.000000000000
 31      -0.000000000000
 32       0.000000000000
 33      -0.000000000000
 34      -0.000000000000
 35       0.000000000000
 36      -0.000000000001
 37      -0.000000000001
 38       0.000000000001
 39      -0.300951325861
 40       1.132005509121
 41       0.680206480270
 Sym=     1a
 Ene= 2.95501765088297E-01
 Spin= Alpha
 Occup= 0.000000
  1       0.000000000000
  2       0.000000000000
  3       0.000000000000
  4       0.000000000000
  5       0.000000000001
  6       0.000000000001
  7       0.000000000001
  8       0.000000000006
  9      -0.009330006196
 10      -0.043976009185
 11       0.069057276421
 12       0.013518813749
 13       0.063719515848
 14      -0.100061290254
 15       0.002689095760
 16       0.012674771851
 17      -0.019903698394
 18       0.085820275376
 19       0.404504899480
 20      -0.635210133315
 21      -0.000000000000
 22       0.000000000000
 23       0.000000000000
 24       0.000000000000
 25      -0.000000000000
 26       0.000000000000
 27       0.000000000000
 28      -0.000000000000
 29      -0.000000000000
 30       0.000000000000
 31      -0.000000000000
 32       0.000000000000
 33       0.000000000000
 34      -0.000000000001
 35       0.000000000001
 36      -0.000000000001
 37      -0.000000000001
 38      -0.000000000007
 39      -0.153367453831
 40      -0.722881466230
 41       1.135169519898
 Sym=     1a
 Ene= 3.48144559342561E-01
 Spin= Alpha
 Occup= 0.000000
  1       0.023656356887
  2       0.003669178835
  3       0.009775475222
  4      -0.000900394842
  5       0.193081749678
  6       0.090363458313
  7       0.143672558638
  8       1.404626149975
  9       0.000000000000
 10       0.000000000001
 11      -0.000000000000
 12      -0.000000000001
 13      -0.000000000001
 14       0.000000000000
 15      -0.000000000001
 16       0.000000000005
 17       0.000000000000
 18      -0.000000000003
 19       0.000000000002
 20       0.000000000001
 21      -0.000000000000
 22       0.000000000000
 23       0.000000000000
 24       0.000000000000
 25      -0.000000000000
 26       0.000000000000
 27       0.000000000000
 28      -0.000000000000
 29       0.000000000000
 30       0.000000000000
 31      -0.000000000000
 32       0.000000000000
 33      -0.000000000000
 34      -0.000000000000
 35      -0.000000000000
 36      -0.000000000001
 37      -0.000000000001
 38      -1.744183337598
 39       0.000000000006
 40       0.000000000002
 41      -0.000000000002
 Sym=     1a
 Ene= 9.07592628969709E-01
 Spin= Alpha
 Occup= 0.000000
  1      -0.000000000000
  2      -0.000000000000
  3       0.000000000000
  4      -0.000000000000
  5      -0.000000000002
  6      -0.000000000003
  7      -0.000000000004
  8      -0.000000000003
  9       0.180908896080
 10      -0.003397528566
 11       0.077256017519
 12      -0.043086446200
 13       0.000809177630
 14      -0.018399798543
 15       1.230289273928
 16      -0.023105237186
 17       0.525387373199
 18       1.775252358241
 19      -0.033339823139
 20       0.758110464774
 21      -0.000000000000
 22      -0.000000000001
 23      -0.000000000001
 24      -0.000000000000
 25       0.000000000000
 26      -0.000000000002
 27      -0.000000000004
 28      -0.000000000002
 29      -0.000000000001
 30       0.000000000001
 31       0.000000000000
 32      -0.000000000000
 33       0.000000000000
 34       0.000000000000
 35      -0.000000000000
 36       0.000000000001
 37       0.000000000001
 38       0.000000000001
 39      -0.680183649034
 40       0.012774072630
 41      -0.290468191696
 Sym=     1a
 Ene= 9.07592628969931E-01
 Spin= Alpha
 Occup= 0.000000
  1       0.000000000000
  2       0.000000000000
  3      -0.000000000000
  4       0.000000000001
  5       0.000000000003
  6       0.000000000004
  7       0.000000000004
  8       0.000000000003
  9      -0.077229846269
 10       0.002096734692
 11       0.180939820584
 12       0.018393565426
 13      -0.000499372051
 14      -0.043093811382
 15      -0.525209392964
 16       0.014259056674
 17       1.230499579153
 18      -0.757853647256
 19       0.020575180588
 20       1.775555819266
 21      -0.000000000001
 22       0.000000000001
 23       0.000000000000
 24       0.000000000001
 25      -0.000000000000
 26      -0.000000000003
 27       0.000000000006
 28       0.000000000000
 29       0.000000000001
 30      -0.000000000000
 31      -0.000000000000
 32       0.000000000000
 33      -0.000000000000
 34      -0.000000000001
 35       0.000000000000
 36      -0.000000000002
 37      -0.000000000001
 38      -0.000000000001
 39       0.290369792684
 40      -0.007883330698
 41      -0.680299919392
 Sym=     1a
 Ene= 9.07592628983542E-01
 Spin= Alpha
 Occup= 0.000000
  1      -0.000000000000
  2      -0.000000000000
  3       0.000000000000
  4      -0.000000000001
  5      -0.000000000004
  6      -0.000000000007
  7      -0.000000000011
  8      -0.000000000014
  9       0.003947947384
 10       0.196703138326
 11      -0.000594313205
 12      -0.000940268976
 13      -0.046848106260
 14       0.000141545520
 15       0.026848416110
 16       1.337699618287
 17      -0.004041687156
 18       0.038741062792
 19       1.930240677785
 20      -0.005831973671
 21      -0.000000000000
 22      -0.000000000002
 23       0.000000000000
 24       0.000000000001
 25       0.000000000000
 26      -0.000000000000
 27      -0.000000000009
 28      -0.000000000000
 29       0.000000000002
 30       0.000000000001
 31       0.000000000000
 32       0.000000000000
 33       0.000000000000
 34      -0.000000000000
 35       0.000000000004
 36      -0.000000000001
 37       0.000000000000
 38       0.000000000008
 39      -0.014843544544
 40      -0.739567048951
 41       0.002234506612
 Sym=     1a
 Ene= 9.42574204495645E-01
 Spin= Alpha
 Occup= 0.000000
  1      -0.000000000000
  2       0.000000000000
  3      -0.000000000000
  4       0.000000000000
  5       0.000000000000
  6       0.000000000001
  7       0.000000000001
  8       0.000000000001
  9       0.000000000000
 10       0.000000000000
 11       0.000000000000
 12      -0.000000000000
 13      -0.000000000000
 14      -0.000000000000
 15       0.000000000002
 16       0.000000000002
 17       0.000000000001
 18       0.000000000002
 19       0.000000000003
 20       0.000000000001
 21       0.048139512830
 22       0.034401847583
 23       0.106741389169
 24      -0.031463768648
 25       0.155802263335
 26       0.209432977872
 27       0.149666686677
 28       0.464382908790
 29      -0.136884450541
 30       0.677824307954
 31       0.000000000000
 32      -0.000000000000
 33       0.000000000000
 34       0.000000000000
 35      -0.000000000000
 36       0.000000000000
 37       0.000000000000
 38      -0.000000000001
 39      -0.000000000001
 40      -0.000000000001
 41      -0.000000000000
 Sym=     1a
 Ene= 9.42574204495669E-01
 Spin= Alpha
 Occup= 0.000000
  1      -0.000000000000
  2       0.000000000000
  3      -0.000000000000
  4       0.000000000000
  5       0.000000000000
  6       0.000000000001
  7       0.000000000001
  8       0.000000000002
  9      -0.000000000000
 10      -0.000000000000
 11       0.000000000000
 12       0.000000000000
 13      -0.000000000000
 14       0.000000000000
 15      -0.000000000003
 16      -0.000000000000
 17       0.000000000001
 18      -0.000000000004
 19      -0.000000000001
 20       0.000000000001
 21       0.027593554585
 22      -0.000120745198
 23      -0.167744324395
 24      -0.001614228143
 25       0.106097855958
 26       0.120046921274
 27      -0.000525307068
 28      -0.729778747514
 29      -0.007022767516
 30       0.461583190454
 31      -0.000000000000
 32       0.000000000000
 33      -0.000000000000
 34      -0.000000000000
 35       0.000000000000
 36      -0.000000000000
 37      -0.000000000000
 38      -0.000000000001
 39       0.000000000002
 40       0.000000000000
 41      -0.000000000000
 Sym=     1a
 Ene= 9.42574204495734E-01
 Spin= Alpha
 Occup= 0.000000
  1       0.000000000000
  2       0.000000000000
  3       0.000000000000
  4       0.000000000000
  5       0.000000000000
  6       0.000000000001
  7       0.000000000001
  8       0.000000000002
  9      -0.000000000001
 10      -0.000000000000
 11       0.000000000000
 12       0.000000000000
 13      -0.000000000000
 14       0.000000000000
 15      -0.000000000005
 16      -0.000000000000
 17       0.000000000000
 18      -0.000000000007
 19      -0.000000000001
 20       0.000000000000
 21      -0.073064154609
 22      -0.050763138768
 23      -0.008230097970
 24      -0.179347909327
 25       0.003203737378
 26      -0.317868681585
 27      -0.220847173005
 28      -0.035805387814
 29      -0.780260632423
 30       0.013937994384
 31      -0.000000000000
 32      -0.000000000000
 33      -0.000000000000
 34      -0.000000000000
 35       0.000000000000
 36      -0.000000000000
 37      -0.000000000000
 38      -0.000000000001
 39       0.000000000003
 40       0.000000000000
 41      -0.000000000000
 Sym=     1a
 Ene= 9.42574204495750E-01
 Spin= Alpha
 Occup= 0.000000
  1      -0.000000000000
  2       0.000000000000
  3      -0.000000000000
  4       0.000000000000
  5       0.000000000001
  6       0.000000000001
  7       0.000000000002
  8       0.000000000002
  9       0.000000000000
 10       0.000000000001
 11       0.000000000000
 12       0.000000000000
 13      -0.000000000000
 14      -0.000000000000
 15       0.000000000003
 16       0.000000000006
 17       0.000000000002
 18       0.000000000005
 19       0.000000000010
 20       0.000000000003
 21       0.150181040896
 22       0.075988331096
 23      -0.017530449149
 24      -0.083099279505
 25      -0.067952627345
 26       0.653368943007
 27       0.330590434539
 28      -0.076266957283
 29      -0.361526915056
 30      -0.295630766959
 31       0.000000000000
 32      -0.000000000000
 33       0.000000000000
 34       0.000000000000
 35      -0.000000000000
 36       0.000000000001
 37       0.000000000001
 38      -0.000000000001
 39      -0.000000000002
 40      -0.000000000004
 41      -0.000000000001
 Sym=     1a
 Ene= 9.42574204495825E-01
 Spin= Alpha
 Occup= 0.000000
  1       0.000000000000
  2       0.000000000000
  3      -0.000000000000
  4      -0.000000000000
  5      -0.000000000000
  6      -0.000000000001
  7      -0.000000000003
  8      -0.000000000003
  9       0.000000000001
 10       0.000000000002
 11      -0.000000000001
 12       0.000000000000
 13      -0.000000000000
 14      -0.000000000000
 15       0.000000000009
 16       0.000000000011
 17      -0.000000000009
 18       0.000000000012
 19       0.000000000017
 20      -0.000000000012
 21      -0.095850953509
 22       0.174998038718
 23      -0.015874642791
 24      -0.009757082956
 25      -0.000119066472
 26      -0.417003609822
 27       0.761336337153
 28      -0.069063301993
 29      -0.042448600302
 30      -0.000518003699
 31       0.000000000000
 32      -0.000000000000
 33       0.000000000000
 34       0.000000000001
 35      -0.000000000000
 36       0.000000000001
 37       0.000000000001
 38       0.000000000001
 39      -0.000000000004
 40      -0.000000000006
 41       0.000000000004
 Sym=     1a
 Ene= 1.24497907857314E+00
 Spin= Alpha
 Occup= 0.000000
  1      -0.072798515368
  2      -0.006340430261
  3      -0.042997233454
  4       0.204330801896
  5       0.061846616698
  6       0.812988906364
  7       2.956406182308
  8       3.274511690898
  9      -0.000000000000
 10       0.000000000000
 11       0.000000000000
 12       0.000000000002
 13       0.000000000001
 14      -0.000000000001
 15       0.000000000004
 16       0.000000000004
 17      -0.000000000001
 18       0.000000000003
 19       0.000000000006
 20      -0.000000000000
 21       0.000000000001
 22      -0.000000000000
 23      -0.000000000000
 24      -0.000000000001
 25       0.000000000001
 26      -0.000000000001
 27       0.000000000001
 28       0.000000000000
 29       0.000000000001
 30      -0.000000000001
 31       0.000000000000
 32      -0.000000000000
 33       0.000000000000
 34       0.000000000002
 35      -0.000000000001
 36       0.000000000006
 37       0.000000000004
 38      -1.186141051701
 39      -0.000000000001
 40      -0.000000000002
 41      -0.000000000000
 Sym=     1a
 Ene= 2.40341827218996E+00
 Spin= Alpha
 Occup= 0.000000
  1       0.000000000000
  2       0.000000000000
  3       0.000000000000
  4       0.000000000001
  5       0.000000000006
  6       0.000000000006
  7       0.000000000001
  8      -0.000000000001
  9      -0.000000000000
 10      -0.000000000000
 11      -0.000000000000
 12      -0.000000000000
 13       0.000000000000
 14       0.000000000001
 15      -0.000000000001
 16       0.000000000000
 17       0.000000000002
 18      -0.000000000000
 19       0.000000000000
 20       0.000000000001
 21       0.583955049582
 22      -0.319086829469
 23      -0.313506606992
 24      -0.139106456270
 25       0.940612509741
 26      -0.413679710357
 27       0.226044362983
 28       0.222091276492
 29       0.098544431767
 30      -0.666339491142
 31       0.000000000000
 32      -0.000000000000
 33       0.000000000000
 34       0.000000000001
 35      -0.000000000001
 36       0.000000000002
 37       0.000000000001
 38       0.000000000000
 39       0.000000000000
 40      -0.000000000000
 41       0.000000000000
 Sym=     1a
 Ene= 2.40341827219013E+00
 Spin= Alpha
 Occup= 0.000000
  1       0.000000000000
  2       0.000000000000
  3       0.000000000000
  4       0.000000000000
  5       0.000000000001
  6       0.000000000002
  7       0.000000000000
  8      -0.000000000000
  9      -0.000000000000
 10       0.000000000000
 11      -0.000000000000
 12       0.000000000000
 13      -0.000000000000
 14       0.000000000000
 15       0.000000000000
 16      -0.000000000000
 17       0.000000000000
 18       0.000000000000
 19      -0.000000000000
 20       0.000000000000
 21       0.460731081473
 22      -0.083184726482
 23       1.054371268909
 24      -0.337866024192
 25      -0.012796319768
 26      -0.326386595120
 27       0.058928908281
 28      -0.746927355870
 29       0.239347735973
 30       0.009065043378
 31       0.000000000000
 32       0.000000000000
 33       0.000000000000
 34       0.000000000000
 35      -0.000000000000
 36       0.000000000001
 37       0.000000000001
 38       0.000000000000
 39      -0.000000000000
 40       0.000000000000
 41      -0.000000000000
 Sym=     1a
 Ene= 2.40341827219015E+00
 Spin= Alpha
 Occup= 0.000000
  1      -0.000000000000
  2      -0.000000000000
  3      -0.000000000000
  4      -0.000000000000
  5      -0.000000000002
  6      -0.000000000002
  7      -0.000000000001
  8      -0.000000000000
  9       0.000000000000
 10       0.000000000000
 11       0.000000000000
 12       0.000000000000
 13       0.000000000000
 14      -0.000000000001
 15       0.000000000000
 16      -0.000000000000
 17      -0.000000000001
 18       0.000000000000
 19      -0.000000000000
 20      -0.000000000000
 21       0.630100453600
 22       0.504377042227
 23       0.047695347928
 24       0.886664590983
 25      -0.073055263246
 26      -0.446369585001
 27      -0.357305838675
 28      -0.033787870711
 29      -0.628122235512
 30       0.051753093259
 31      -0.000000000000
 32      -0.000000000000
 33       0.000000000000
 34      -0.000000000000
 35       0.000000000000
 36      -0.000000000000
 37       0.000000000000
 38      -0.000000000000
 39      -0.000000000000
 40       0.000000000000
 41       0.000000000000
 Sym=     1a
 Ene= 2.40341827219020E+00
 Spin= Alpha
 Occup= 0.000000
  1       0.000000000000
  2       0.000000000000
  3      -0.000000000000
  4       0.000000000000
  5       0.000000000001
  6       0.000000000001
  7       0.000000000000
  8       0.000000000000
  9      -0.000000000000
 10      -0.000000000000
 11      -0.000000000000
 12       0.000000000000
 13       0.000000000000
 14       0.000000000000
 15       0.000000000000
 16       0.000000000000
 17       0.000000000000
 18       0.000000000000
 19       0.000000000000
 20       0.000000000000
 21      -0.295847293023
 22       0.991779889005
 23       0.111850577978
 24      -0.317895046045
 25       0.510380265921
 26       0.209581238445
 27      -0.702586984247
 28      -0.079236089720
 29       0.225200091456
 30      -0.361558583541
 31       0.000000000001
 32      -0.000000000000
 33       0.000000000001
 34       0.000000000001
 35      -0.000000000000
 36       0.000000000002