[Molden Format]
[Title]
 Molden file created by orca_2mkl for BaseName=/data01/Nikolayandreadi/heavy/sCC/Cf

[Atoms] AU
Cf   1  98          0.0415890928         1.5388172189        -3.6027401976 
[GTO]
  1 0
s   9 1.0 
 66908672.6715350002     19723.9240328506
 30413033.0325159989     -7309.2804703746
 13824105.9238709994     11108.6474302186
  6283684.5108500002       192.0060418558
  2856220.2322049998      5023.9009021856
  1298281.9237289999      2140.5371375207
   590128.1471500000      3038.5742012568
   268240.0668860000      2175.2400512026
   121927.3031300000      2221.7953317788
s   1 1.0 
    55421.5014230000      2574.3572064150
s   1 1.0 
    25191.5915560000      1425.1211877022
s   1 1.0 
    11450.7234340000       788.9233065632
s   1 1.0 
     5204.8742880000       436.7347766740
s   1 1.0 
     2365.8519490000       241.7690839771
s   1 1.0 
     1075.3872500000       133.8393302052
s   1 1.0 
      488.8123860000        74.0912196027
s   1 1.0 
      222.1874480000        41.0156626867
s   1 1.0 
      100.9942950000        22.7055864563
s   1 1.0 
       45.9064980000        12.5694337994
s   1 1.0 
       20.8665900000         6.9582287883
s   1 1.0 
        9.4848140000         3.8519594466
s   1 1.0 
        4.3112790000         2.1323804331
s   1 1.0 
        1.9596720000         1.1804500986
s   1 1.0 
        0.8907600000         0.6534774748
s   1 1.0 
        0.4048910000         0.3617542855
s   1 1.0 
        0.1840410000         0.2002608386
s   1 1.0 
        0.0836550000         0.1108610582
s   1 1.0 
        0.0380250000         0.0613708318
s   1 1.0 
        0.0172840000         0.0339737343
p   8 1.0 
   960041.3086390001    172523.9153263621
   400017.2119330000     14286.9049780161
   166673.8383050000     49107.5544422491
    69447.4326270000     23735.2952189188
    28936.4302610000     22600.1347429415
    12056.8459420000     17646.8428423021
     5023.6858090000     16065.6009367248
     2093.2024210000     14110.8439338867
p   1 1.0 
      872.1676750000      6756.0066901341
p   1 1.0 
      363.4031980000      2261.6532395791
p   1 1.0 
      151.4179990000       757.1152016567
p   1 1.0 
       63.0908330000       253.4532793460
p   1 1.0 
       26.2878470000        84.8464861226
p   1 1.0 
       10.9532700000        28.4033672666
p   1 1.0 
        4.5638620000         9.5083622211
p   1 1.0 
        1.9016090000         3.1830364955
p   1 1.0 
        0.7923370000         1.0655590178
p   1 1.0 
        0.3301410000         0.3567092866
p   1 1.0 
        0.1375590000         0.1194129288
p   1 1.0 
        0.0573160000         0.0399746740
d   7 1.0 
    47740.9667690000     78536.3810533106
    19096.3867080000     37761.1372638120
     7638.5546830000     41043.0738245767
     3055.4218730000     36817.1467409450
     1222.1687490000     38433.7288352161
      488.8675000000     34313.3838037257
      195.5470000000     23183.6627679842
d   1 1.0 
       78.2188000000      5864.9537829766
d   1 1.0 
       31.2875200000      1179.9662320416
d   1 1.0 
       12.5150080000       237.3966377706
d   1 1.0 
        5.0060030000        47.7616716090
d   1 1.0 
        2.0024010000         9.6091379266
d   1 1.0 
        0.8009610000         1.9332587359
d   1 1.0 
        0.3203840000         0.3889502162
d   1 1.0 
        0.1281540000         0.0782530681
d   1 1.0 
        0.0512610000         0.0157433613
f   6 1.0 
     5522.2215080000     92384.3438002047
     2123.9313490000     80951.8912327257
      816.8966730000     85931.6776874870
      314.1910280000     85138.5468535653
      120.8427030000     63169.9712808570
       46.4779630000     26779.8441428601
f   1 1.0 
       17.8761400000      3746.4160948553
f   1 1.0 
        6.8754380000       436.4413716492
f   1 1.0 
        2.6443990000        50.8435415163
f   1 1.0 
        1.0170770000         5.9230609856
f   1 1.0 
        0.3911830000         0.6900094179
f   1 1.0 
        0.1504550000         0.0803831434

[5D]
[7F]
[9G]
[MO]
 Sym=     1a
 Ene= -4.97340116566019E+03
 Spin= Alpha
 Occup= 1.000000
  1      -0.100158669771
  2      -0.072459601150
  3      -0.121279830784
  4      -0.184968073581
  5      -0.265553196885
  6      -0.291288572800
  7      -0.179037117491
  8      -0.028408684290
  9      -0.001033717318
 10       0.000757030435
 11      -0.000544631894
 12       0.000392961513
 13      -0.000275757180
 14       0.000185406368
 15      -0.000122630294
 16       0.000080563283
 17      -0.000051935108
 18       0.000032121962
 19      -0.000018150239
 20       0.000008312314
 21      -0.000002239210
 22       0.000000000000
 23      -0.000000000001
 24      -0.000000000001
 25       0.000000000000
 26       0.000000000001
 27       0.000000000001
 28       0.000000000000
 29      -0.000000000001
 30      -0.000000000001
 31       0.000000000000
 32       0.000000000001
 33       0.000000000001
 34      -0.000000000000
 35      -0.000000000001
 36      -0.000000000001
 37       0.000000000000
 38       0.000000000001
 39       0.000000000001
 40      -0.000000000000
 41      -0.000000000000
 42      -0.000000000001
 43       0.000000000000
 44       0.000000000000
 45       0.000000000000
 46      -0.000000000000
 47      -0.000000000000
 48      -0.000000000000
 49       0.000000000000
 50       0.000000000000
 51       0.000000000000
 52      -0.000000000000
 53      -0.000000000000
 54      -0.000000000000
 55      -0.000000000000
 56       0.000000000000
 57       0.000000000000
 58       0.000000000000
 59       0.000000000000
 60      -0.000000000000
 61       0.000000000000
 62      -0.000000000001
 63       0.000000000000
 64       0.000000000000
 65      -0.000000000002
 66      -0.000000000000
 67       0.000000000001
 68      -0.000000000000
 69      -0.000000000002
 70       0.000000000001
 71       0.000000000000
 72      -0.000000000000
 73       0.000000000000
 74       0.000000000002
 75      -0.000000000001
 76      -0.000000000000
 77       0.000000000000
 78      -0.000000000000
 79      -0.000000000002
 80       0.000000000000
 81       0.000000000000
 82      -0.000000000000
 83       0.000000000000
 84       0.000000000001
 85      -0.000000000000
 86      -0.000000000000
 87       0.000000000000
 88      -0.000000000000
 89      -0.000000000001
 90       0.000000000000
 91       0.000000000000
 92      -0.000000000000
 93       0.000000000000
 94       0.000000000000
 95      -0.000000000000
 96      -0.000000000000
 97       0.000000000000
 98      -0.000000000000
 99      -0.000000000000
100       0.000000000000
101       0.000000000000
102      -0.000000000000
103       0.000000000000
104       0.000000000000
105      -0.000000000000
106      -0.000000000000
107       0.000000000000
108      -0.000000000000
109      -0.000000000000
110       0.000000000000
111       0.000000000000
112      -0.000000000000
113       0.000000000001
114       0.000000000001
115       0.000000000000
116      -0.000000000001
117      -0.000000000000
118      -0.000000000000
119       0.000000000000
120      -0.000000000001
121      -0.000000000001
122      -0.000000000000
123       0.000000000000
124       0.000000000004
125       0.000000000000
126      -0.000000000000
127       0.000000000000
128       0.000000000001
129      -0.000000000000
130      -0.000000000000
131      -0.000000000003
132      -0.000000000000
133       0.000000000000
134      -0.000000000000
135      -0.000000000000
136       0.000000000000
137       0.000000000000
138       0.000000000001
139       0.000000000000
140      -0.000000000000
141       0.000000000000
142       0.000000000000
143      -0.000000000000
144       0.000000000000
145      -0.000000000001
146       0.000000000000
147       0.000000000000
148      -0.000000000000
149       0.000000000000
150       0.000000000000
151      -0.000000000000
152       0.000000000000
153       0.000000000000
154      -0.000000000001
155       0.000000000000
156      -0.000000000000
157      -0.000000000000
158      -0.000000000000
159      -0.000000000000
 Sym=     1a
 Ene= -9.61680763098526E+02
 Spin= Alpha
 Occup= 1.000000
  1       0.043746626965
  2       0.034277813427
  3       0.055733114616
  4       0.093423584188
  5       0.142261026021
  6       0.168913720348
  7       0.039497606687
  8      -0.403888123798
  9      -0.585162000872
 10      -0.141408183604
 11       0.001084199057
 12      -0.000453000290
 13       0.000049918588
 14       0.000095465026
 15      -0.000112747825
 16       0.000083582560
 17      -0.000056107754
 18       0.000035730033
 19      -0.000020384255
 20       0.000009379743
 21      -0.000002532096
 22       0.000000000003
 23       0.000000000000
 24      -0.000000000002
 25       0.000000000005
 26       0.000000000001
 27      -0.000000000005
 28       0.000000000010
 29       0.000000000000
 30      -0.000000000002
 31       0.000000000004
 32       0.000000000006
 33      -0.000000000018
 34       0.000000000000
 35      -0.000000000008
 36       0.000000000003
 37      -0.000000000000
 38       0.000000000009
 39      -0.000000000003
 40       0.000000000000
 41      -0.000000000006
 42       0.000000000003
 43       0.000000000000
 44       0.000000000004
 45      -0.000000000003
 46      -0.000000000001
 47      -0.000000000003
 48       0.000000000004
 49       0.000000000001
 50       0.000000000002
 51      -0.000000000003
 52      -0.000000000001
 53      -0.000000000002
 54       0.000000000002
 55       0.000000000000
 56       0.000000000001
 57      -0.000000000001
 58      -0.000000000000
 59      -0.000000000000
 60       0.000000000000
 61       0.000000000032
 62      -0.000000000063
 63       0.000000000005
 64      -0.000000000005
 65      -0.000000000086
 66       0.000000000002
 67      -0.000000000031
 68       0.000000000005
 69       0.000000000006
 70       0.000000000002
 71       0.000000000003
 72       0.000000000007
 73       0.000000000001
 74      -0.000000000003
 75      -0.000000000008
 76      -0.000000000002
 77      -0.000000000005
 78       0.000000000001
 79       0.000000000005
 80       0.000000000011
 81       0.000000000001
 82       0.000000000004
 83      -0.000000000001
 84      -0.000000000004
 85      -0.000000000008
 86      -0.000000000000
 87      -0.000000000003
 88       0.000000000000
 89       0.000000000001
 90       0.000000000003
 91       0.000000000000
 92       0.000000000002
 93      -0.000000000001
 94      -0.000000000001
 95      -0.000000000002
 96      -0.000000000000
 97      -0.000000000001
 98       0.000000000000
 99       0.000000000001
100       0.000000000001
101      -0.000000000000
102       0.000000000001
103      -0.000000000000
104      -0.000000000000
105       0.000000000000
106       0.000000000000
107      -0.000000000000
108       0.000000000000
109       0.000000000000
110      -0.000000000000
111      -0.000000000000
112      -0.000000000000
113      -0.000000000001
114       0.000000000002
115       0.000000000000
116      -0.000000000002
117       0.000000000001
118       0.000000000000
119       0.000000000000
120       0.000000000001
121      -0.000000000001
122      -0.000000000000
123       0.000000000001
124       0.000000000002
125      -0.000000000000
126      -0.000000000000
127      -0.000000000000
128       0.000000000001
129      -0.000000000000
130      -0.000000000000
131      -0.000000000003
132       0.000000000000
133       0.000000000000
134       0.000000000000
135      -0.000000000000
136      -0.000000000000
137       0.000000000000
138       0.000000000002
139      -0.000000000000
140       0.000000000000
141      -0.000000000000
142       0.000000000000
143      -0.000000000000
144      -0.000000000000
145      -0.000000000001
146       0.000000000000
147       0.000000000000
148       0.000000000000
149      -0.000000000000
150       0.000000000000
151       0.000000000000
152       0.000000000003
153      -0.000000000000
154      -0.000000000001
155      -0.000000000000
156      -0.000000000000
157      -0.000000000000
158      -0.000000000000
159      -0.000000000001
 Sym=     1a
 Ene= -7.89314497776972E+02
 Spin= Alpha
 Occup= 1.000000
  1      -0.000000000000
  2      -0.000000000000
  3      -0.000000000000
  4      -0.000000000001
  5      -0.000000000001
  6       0.000000000000
  7      -0.000000000004
  8       0.000000000011
  9      -0.000000000023
 10       0.000000000046
 11      -0.000000000048
 12       0.000000000045
 13      -0.000000000027
 14       0.000000000009
 15       0.000000000007
 16      -0.000000000020
 17       0.000000000026
 18      -0.000000000023
 19       0.000000000014
 20      -0.000000000004
 21       0.000000000001
 22       0.143031957045
 23       0.100150741722
 24       0.073509459676
 25       0.233274718856
 26       0.163338575527
 27       0.119888582200
 28       0.342099461502
 29       0.239537481828
 30       0.175817678009
 31       0.174597616098
 32       0.122252964422
 33       0.089732229686
 34       0.004973596207
 35       0.003482503905
 36       0.002556116679
 37       0.003282848089
 38       0.002298644849
 39       0.001687178111
 40      -0.002246001995
 41      -0.001572646913
 42      -0.001154304219
 43       0.001379734237
 44       0.000966087649
 45       0.000709096900
 46      -0.000828003213
 47      -0.000579766490
 48      -0.000425541741
 49       0.000489903434
 50       0.000343029579
 51       0.000251779650
 52      -0.000273919410
 53      -0.000191797920
 54      -0.000140777403
 55       0.000132432922
 56       0.000092729314
 57       0.000068062219
 58      -0.000041457055
 59      -0.000029028161
 60      -0.000021306327
 61       0.000000000005
 62       0.000000000001
 63       0.000000000001
 64       0.000000000001
 65      -0.000000000005
 66       0.000000000006
 67       0.000000000005
 68       0.000000000006
 69      -0.000000000001
 70       0.000000000003
 71      -0.000000000001
 72       0.000000000000
 73      -0.000000000001
 74       0.000000000000
 75      -0.000000000001
 76       0.000000000001
 77       0.000000000001
 78       0.000000000002
 79       0.000000000000
 80      -0.000000000000
 81       0.000000000000
 82      -0.000000000001
 83      -0.000000000001
 84      -0.000000000000
 85       0.000000000001
 86      -0.000000000001
 87      -0.000000000000
 88      -0.000000000000
 89      -0.000000000000
 90      -0.000000000001
 91       0.000000000000
 92       0.000000000000
 93      -0.000000000000
 94       0.000000000000
 95       0.000000000001
 96      -0.000000000000
 97      -0.000000000000
 98       0.000000000000
 99       0.000000000000
100      -0.000000000000
101      -0.000000000000
102      -0.000000000000
103      -0.000000000000
104      -0.000000000001
105       0.000000000000
106       0.000000000000
107       0.000000000000
108       0.000000000000
109       0.000000000000
110      -0.000000000000
111      -0.000000000030
112       0.000000000016
113      -0.000000000003
114       0.000000000023
115       0.000000000042
116       0.000000000031
117      -0.000000000030
118       0.000000000018
119      -0.000000000008
120       0.000000000002
121      -0.000000000013
122      -0.000000000022
123      -0.000000000018
124       0.000000000016
125      -0.000000000010
126       0.000000000004
127      -0.000000000001
128       0.000000000007
129       0.000000000012
130       0.000000000010
131      -0.000000000009
132       0.000000000006
133      -0.000000000002
134       0.000000000001
135      -0.000000000004
136      -0.000000000006
137      -0.000000000005
138       0.000000000005
139      -0.000000000003
140       0.000000000001
141      -0.000000000000
142       0.000000000002
143       0.000000000003
144       0.000000000002
145      -0.000000000002
146       0.000000000002
147      -0.000000000000
148       0.000000000000
149      -0.000000000001
150      -0.000000000001
151      -0.000000000001
152       0.000000000001
153      -0.000000000001
154       0.000000000000
155       0.000000000000
156       0.000000000001
157       0.000000000000
158       0.000000000000
159      -0.000000000000
 Sym=     1a
 Ene= -7.89314497719099E+02
 Spin= Alpha
 Occup= 1.000000
  1      -0.000000000001
  2      -0.000000000001
  3      -0.000000000000
  4      -0.000000000004
  5       0.000000000002
  6      -0.000000000014
  7       0.000000000017
  8      -0.000000000015
  9       0.000000000062
 10      -0.000000000100
 11       0.000000000119
 12      -0.000000000129
 13       0.000000000137
 14      -0.000000000123
 15       0.000000000096
 16      -0.000000000068
 17       0.000000000041
 18      -0.000000000014
 19      -0.000000000004
 20       0.000000000013
 21      -0.000000000008
 22      -0.034573644998
 23       0.139760612026
 24      -0.123140516765
 25      -0.056387100364
 26       0.227939393070
 27      -0.200833226521
 28      -0.082692186964
 29       0.334275158474
 30      -0.294523722815
 31      -0.042203687352
 32       0.170604319371
 33      -0.150316342673
 34      -0.001202216294
 35       0.004859842941
 36      -0.004281918648
 37      -0.000793529120
 38       0.003207764655
 39      -0.002826302715
 40       0.000542902971
 41      -0.002194632710
 42       0.001933650706
 43      -0.000333508972
 44       0.001348177735
 45      -0.001187854724
 46       0.000200144703
 47      -0.000809065588
 48       0.000712852881
 49      -0.000118419318
 50       0.000478698635
 51      -0.000421772606
 52       0.000066211722
 53      -0.000267654478
 54       0.000235825463
 55      -0.000032011649
 56       0.000129403992
 57      -0.000114015488
 58       0.000010020988
 59      -0.000040508873
 60       0.000035691626
 61      -0.000000000004
 62       0.000000000001
 63       0.000000000010
 64       0.000000000007
 65       0.000000000000
 66      -0.000000000001
 67      -0.000000000003
 68       0.000000000002
 69       0.000000000004
 70       0.000000000001
 71      -0.000000000003
 72       0.000000000000
 73       0.000000000003
 74      -0.000000000002
 75      -0.000000000001
 76       0.000000000001
 77      -0.000000000002
 78       0.000000000000
 79       0.000000000002
 80       0.000000000017
 81       0.000000000000
 82       0.000000000002
 83      -0.000000000001
 84      -0.000000000002
 85      -0.000000000015
 86       0.000000000001
 87      -0.000000000001
 88      -0.000000000000
 89       0.000000000002
 90       0.000000000008
 91      -0.000000000001
 92       0.000000000001
 93       0.000000000001
 94      -0.000000000009
 95      -0.000000000005
 96       0.000000000001
 97      -0.000000000000
 98      -0.000000000000
 99       0.000000000007
100       0.000000000003
101      -0.000000000000
102       0.000000000000
103       0.000000000000
104      -0.000000000004
105      -0.000000000001
106       0.000000000000
107      -0.000000000000
108       0.000000000000
109       0.000000000001
110       0.000000000000
111       0.000000000032
112      -0.000000000027
113      -0.000000000017
114      -0.000000000002
115       0.000000000013
116       0.000000000007
117       0.000000000004
118      -0.000000000017
119       0.000000000016
120       0.000000000009
121       0.000000000002
122      -0.000000000008
123      -0.000000000005
124      -0.000000000004
125       0.000000000009
126      -0.000000000009
127      -0.000000000005
128      -0.000000000001
129       0.000000000004
130       0.000000000004
131       0.000000000002
132      -0.000000000005
133       0.000000000005
134       0.000000000002
135       0.000000000000
136      -0.000000000001
137      -0.000000000003
138      -0.000000000001
139       0.000000000002
140      -0.000000000002
141      -0.000000000001
142      -0.000000000000
143       0.000000000001
144       0.000000000002
145       0.000000000001
146      -0.000000000002
147       0.000000000000
148       0.000000000001
149      -0.000000000000
150      -0.000000000001
151      -0.000000000001
152      -0.000000000000
153       0.000000000001
154       0.000000000000
155      -0.000000000000
156       0.000000000000
157       0.000000000000
158       0.000000000000
159       0.000000000000
 Sym=     1a
 Ene= -7.89314497672277E+02
 Spin= Alpha
 Occup= 1.000000
  1       0.000000000001
  2       0.000000000001
  3       0.000000000001
  4       0.000000000003
  5       0.000000000003
  6       0.000000000008
  7      -0.000000000007
  8       0.000000000004
  9      -0.000000000059
 10       0.000000000078
 11      -0.000000000096
 12       0.000000000102
 13      -0.000000000094
 14       0.000000000079
 15      -0.000000000063
 16       0.000000000045
 17      -0.000000000029
 18       0.000000000015
 19      -0.000000000007
 20       0.000000000000
 21       0.000000000003
 22      -0.119325080369
 23       0.079553458312
 24       0.123793073075
 25      -0.194610527267
 26       0.129745904382
 27       0.201897498401
 28      -0.285398078717
 29       0.190273529130
 30       0.296084487054
 31      -0.145658879265
 32       0.097110075644
 33       0.151112911297
 34      -0.004149245893
 35       0.002766282324
 36       0.004304609706
 37      -0.002738731398
 38       0.001825899068
 39       0.002841280103
 40       0.001873737684
 41      -0.001249211911
 42      -0.001943897675
 43      -0.001151049750
 44       0.000767399337
 45       0.001194149508
 46       0.000690765558
 47      -0.000460530077
 48      -0.000716630496
 49      -0.000408704234
 50       0.000272481146
 51       0.000424007703
 52       0.000228518550
 53      -0.000152352217
 54      -0.000237075171
 55      -0.000110482786
 56       0.000073658340
 57       0.000114619690
 58       0.000034585743
 59      -0.000023058147
 60      -0.000035880767
 61       0.000000000005
 62      -0.000000000005
 63      -0.000000000002
 64       0.000000000005
 65      -0.000000000010
 66       0.000000000007
 67      -0.000000000002
 68       0.000000000007
 69       0.000000000001
 70       0.000000000004
 71       0.000000000000
 72      -0.000000000002
 73      -0.000000000004
 74      -0.000000000000
 75       0.000000000001
 76       0.000000000000
 77       0.000000000001
 78       0.000000000002
 79       0.000000000000
 80      -0.000000000016
 81       0.000000000002
 82       0.000000000000
 83      -0.000000000001
 84       0.000000000000
 85       0.000000000016
 86      -0.000000000003
 87      -0.000000000000
 88      -0.000000000000
 89      -0.000000000002
 90      -0.000000000010
 91       0.000000000002
 92       0.000000000000
 93      -0.000000000000
 94       0.000000000009
 95       0.000000000005
 96      -0.000000000001
 97      -0.000000000000
 98       0.000000000000
 99      -0.000000000007
100      -0.000000000003
101       0.000000000000
102       0.000000000000
103      -0.000000000000
104       0.000000000002
105       0.000000000001
106      -0.000000000000
107      -0.000000000000
108       0.000000000000
109      -0.000000000001
110      -0.000000000000
111      -0.000000000008
112       0.000000000033
113       0.000000000001
114      -0.000000000009
115       0.000000000035
116       0.000000000035
117       0.000000000015
118       0.000000000003
119      -0.000000000019
120       0.000000000000
121       0.000000000007
122      -0.000000000022
123      -0.000000000020
124      -0.000000000010
125      -0.000000000001
126       0.000000000010
127      -0.000000000001
128      -0.000000000005
129       0.000000000012
130       0.000000000011
131       0.000000000006
132       0.000000000002
133      -0.000000000005
134       0.000000000000
135       0.000000000002
136      -0.000000000005
137      -0.000000000005
138      -0.000000000003
139      -0.000000000001
140       0.000000000002
141      -0.000000000000
142      -0.000000000001
143       0.000000000003
144       0.000000000002
145       0.000000000002
146       0.000000000001
147      -0.000000000001
148      -0.000000000000
149       0.000000000001
150      -0.000000000001
151      -0.000000000001
152      -0.000000000000
153      -0.000000000000
154       0.000000000000
155       0.000000000000
156       0.000000000000
157       0.000000000000
158       0.000000000000
159       0.000000000000
 Sym=     1a
 Ene= -2.51186407789420E+02
 Spin= Alpha
 Occup= 1.000000
  1       0.021580826908
  2       0.017172670266
  3       0.027664931062
  4       0.047596671787
  5       0.072295247282
  6       0.089441788502
  7       0.004074110822
  8      -0.333660313114
  9      -0.670779302273
 10       0.311415407865
 11       0.949407129934
 12       0.095486853317
 13       0.024277176175
 14      -0.018280076033
 15       0.012654228067
 16      -0.008568762870
 17       0.005608954327
 18      -0.003494901837
 19       0.001982822620
 20      -0.000909947098
 21       0.000245378994
 22       0.000000000010
 23       0.000000000000
 24       0.000000000020
 25       0.000000000018
 26      -0.000000000000
 27       0.000000000042
 28       0.000000000029
 29       0.000000000006
 30       0.000000000030
 31      -0.000000000017
 32      -0.000000000007
 33       0.000000000030
 34      -0.000000000062
 35       0.000000000020
 36      -0.000000000159
 37      -0.000000000044
 38      -0.000000000058
 39      -0.000000000179
 40       0.000000000001
 41       0.000000000033
 42       0.000000000023
 43       0.000000000006
 44      -0.000000000017
 45       0.000000000006
 46      -0.000000000010
 47       0.000000000005
 48      -0.000000000011
 49       0.000000000012
 50      -0.000000000001
 51       0.000000000018
 52      -0.000000000010
 53      -0.000000000000
 54      -0.000000000015
 55       0.000000000007
 56       0.000000000000
 57       0.000000000008
 58      -0.000000000003
 59      -0.000000000000
 60      -0.000000000003
 61      -0.000000000233
 62       0.000000000636
 63      -0.000000000102
 64      -0.000000000024
 65       0.000000000431
 66      -0.000000000491
 67       0.000000001411
 68      -0.000000000128
 69      -0.000000000002
 70       0.000000001184
 71      -0.000000000315
 72       0.000000000664
 73      -0.000000000005
 74       0.000000000188
 75       0.000000000831
 76       0.000000000038
 77      -0.000000000061
 78      -0.000000000007
 79      -0.000000000064
 80      -0.000000000137
 81      -0.000000000019
 82       0.000000000048
 83      -0.000000000001
 84       0.000000000024
 85       0.000000000078
 86       0.000000000013
 87      -0.000000000017
 88      -0.000000000007
 89      -0.000000000026
 90      -0.000000000058
 91      -0.000000000005
 92       0.000000000011
 93       0.000000000001
 94       0.000000000008
 95       0.000000000025
 96       0.000000000002
 97      -0.000000000001
 98      -0.000000000001
 99      -0.000000000006
100      -0.000000000012
101      -0.000000000001
102      -0.000000000002
103       0.000000000001
104       0.000000000004
105       0.000000000006
106       0.000000000000
107       0.000000000001
108      -0.000000000000
109      -0.000000000001
110      -0.000000000002
111       0.000000000004
112      -0.000000000005
113       0.000000000002
114       0.000000000021
115      -0.000000000001
116      -0.000000000005
117       0.000000000027
118      -0.000000000001
119      -0.000000000001
120      -0.000000000004
121       0.000000000000
122       0.000000000001
123      -0.000000000005
124       0.000000000029
125       0.000000000001
126       0.000000000001
127       0.000000000001
128      -0.000000000001
129      -0.000000000002
130       0.000000000004
131      -0.000000000007
132      -0.000000000000
133      -0.000000000000
134       0.000000000000
135       0.000000000000
136       0.000000000001
137      -0.000000000002
138      -0.000000000000
139       0.000000000001
140      -0.000000000001
141       0.000000000000
142      -0.000000000001
143       0.000000000000
144       0.000000000003
145       0.000000000004
146      -0.000000000001
147       0.000000000002
148      -0.000000000001
149       0.000000000002
150       0.000000000000
151      -0.000000000001
152      -0.000000000023
153       0.000000000001
154      -0.000000000005
155       0.000000000001
156      -0.000000000003
157      -0.000000000001
158      -0.000000000000
159       0.000000000010
 Sym=     1a
 Ene= -2.03235196115189E+02
 Spin= Alpha
 Occup= 1.000000
  1      -0.000000000005
  2      -0.000000000004
  3      -0.000000000007
  4      -0.000000000012
  5      -0.000000000019
  6      -0.000000000020
  7      -0.000000000007
  8       0.000000000098
  9       0.000000000154
 10      -0.000000000053
 11      -0.000000000454
 12       0.000000000407
 13      -0.000000000376
 14       0.000000000404
 15      -0.000000000408
 16       0.000000000381
 17      -0.000000000322
 18       0.000000000221
 19      -0.000000000116
 20       0.000000000028
 21       0.000000000007
 22       0.080704249491
 23       0.058193561069
 24       0.040067647706
 25       0.141229852110
 26       0.101836868261
 27       0.070117100340
 28       0.207503287298
 29       0.149624775617
 30       0.103020208561
 31      -0.111303090947
 32      -0.080257523757
 33      -0.055259209633
 34      -0.559224903621
 35      -0.403241326032
 36      -0.277641221728
 37      -0.175227701057
 38      -0.126351759437
 39      -0.086996184488
 40       0.005180450173
 41       0.003735476677
 42       0.002571964315
 43      -0.003438341922
 44      -0.002479291501
 45      -0.001707051036
 46       0.001913962476
 47       0.001380104422
 48       0.000950234651
 49      -0.001053127269
 50      -0.000759380403
 51      -0.000522851443
 52       0.000577591261
 53       0.000416484786
 54       0.000286759665
 55      -0.000277328360
 56      -0.000199973660
 57      -0.000137686615
 58       0.000086714519
 59       0.000062527387
 60       0.000043051596
 61      -0.000000000019
 62       0.000000000050
 63       0.000000000033
 64       0.000000000024
 65       0.000000000026