[Molden Format]
[Title]
 Molden file created by orca_2mkl for BaseName=/home/nikolayandreadi/CCact/Bk_OH_3

[Atoms] AU
Bk   1  97         -0.1387418030        -0.2044948239         0.3627064752 
O    2   8         -1.1039421026        -1.6021268239        -2.6907961599 
O    3   8         -1.1227410982         3.1276328119        -0.0069220668 
O    4   8          3.3312923768         0.0077214210         0.0136060282 
H    5   1         -1.5760977361         4.8449195464        -0.2626681532 
H    6   1         -1.5663410801        -2.2532489709        -4.2978022567 
H    7   1          5.1018674986         0.1473948590        -0.2429450815 
[GTO]
  1 0
s   9 1.0 
 65541743.5420790017     19019.9476254555
 29791701.6100360006     -7028.1620515347
 13541682.5500160009     10729.5808283425
  6155310.2500069998       219.6760147465
  2797868.2954580002      4877.6731401385
  1271758.3161170001      2107.2533157329
   578071.9618710000      2974.4100271431
   262759.9826690000      2147.5113940620
   119436.3557590000      2194.9432114789
s   1 1.0 
    54289.2526180000      2534.8104531055
s   1 1.0 
    24676.9330080000      1403.2287650284
s   1 1.0 
    11216.7877310000       776.8040267523
s   1 1.0 
     5098.5398780000       430.0257456502
s   1 1.0 
     2317.5181260000       238.0550763439
s   1 1.0 
     1053.4173300000       131.7833175177
s   1 1.0 
      478.8260590000        72.9530453213
s   1 1.0 
      217.6482090000        40.3855884746
s   1 1.0 
       98.9310040000        22.3567877953
s   1 1.0 
       44.9686380000        12.3763445881
s   1 1.0 
       20.4402900000         6.8513378232
s   1 1.0 
        9.2910410000         3.7927863092
s   1 1.0 
        4.2232000000         2.0996230360
s   1 1.0 
        1.9196370000         1.1623165624
s   1 1.0 
        0.8725620000         0.6434389010
s   1 1.0 
        0.3966190000         0.3561969764
s   1 1.0 
        0.1802810000         0.1971844035
s   1 1.0 
        0.0819460000         0.1091580859
s   1 1.0 
        0.0372480000         0.0604278735
s   1 1.0 
        0.0169310000         0.0334519970
p   8 1.0 
   939440.7605340000    163603.5624050141
   391433.6502220000     13648.4726743925
   163097.3542590000     46752.9833864585
    67957.2309410000     22720.7526078154
    28315.5128920000     21690.6091014626
    11798.1303720000     17031.9304440090
     4915.8876550000     15584.1319316186
     2048.2865230000     13766.5970326100
p   1 1.0 
      853.4527180000      6575.2825548909
p   1 1.0 
      355.6052990000      2201.1536933731
p   1 1.0 
      148.1688750000       736.8622658072
p   1 1.0 
       61.7370310000       246.6733675837
p   1 1.0 
       25.7237630000        82.5768310483
p   1 1.0 
       10.7182350000        27.6435733477
p   1 1.0 
        4.4659310000         9.2540128644
p   1 1.0 
        1.8608050000         3.0978912523
p   1 1.0 
        0.7753350000         1.0370550829
p   1 1.0 
        0.3230560000         0.3471661332
p   1 1.0 
        0.1346070000         0.1162183337
p   1 1.0 
        0.0560860000         0.0389052466
d   7 1.0 
    46590.6458960000     73719.3143163267
    18636.2583580000     35601.7129839961
     7454.5033430000     38854.2461510460
     2981.8013370000     35020.0815522118
     1192.7205350000     36710.2669542399
      477.0882140000     32863.1592484308
      190.8352860000     22220.3546355048
d   1 1.0 
       76.3341140000      5619.8892174274
d   1 1.0 
       30.5336460000      1130.6618776183
d   1 1.0 
       12.2134580000       227.4771137761
d   1 1.0 
        4.8853830000        45.7659690972
d   1 1.0 
        1.9541530000         9.2076238684
d   1 1.0 
        0.7816610000         1.8524750201
d   1 1.0 
        0.3126650000         0.3726994945
d   1 1.0 
        0.1250660000         0.0749831686
d   1 1.0 
        0.0500260000         0.0150856038
f   6 1.0 
     5327.8457110000     85722.6979454394
     2049.1714270000     74961.5100018759
      788.1428570000     80222.5980300722
      303.1318680000     79328.9952709062
      116.5891800000     58645.1115196242
       44.8419920000     24668.5776073917
f   1 1.0 
       17.2469200000      3456.2174950412
f   1 1.0 
        6.6334310000       402.6345744753
f   1 1.0 
        2.5513200000        46.9052202571
f   1 1.0 
        0.9812770000         5.4642583341
f   1 1.0 
        0.3774140000         0.6365618290
f   1 1.0 
        0.1451590000         0.0741564629

  2 0
s   6 1.0 
    27032.3826310000         1.4645050749
     4052.3871392000         1.8244031008
      922.3272271000         2.8547160967
      261.2407098900         4.3654874290
       85.3546413500         5.8940772662
       31.0350352400         6.2963020147
s   1 1.0 
       12.2608607300         4.6698272139
s   1 1.0 
        4.9987076000         2.3826123703
s   1 1.0 
        1.1703108200         0.8019291632
s   1 1.0 
        0.4647474100        -0.4011648063
s   1 1.0 
        0.1850453600         0.2010799377
p   4 1.0 
       63.2749548000         3.0898340730
       14.6270493800         3.3923831935
        4.4501223500         2.9482801524
        1.5275799600         1.7113350234
p   1 1.0 
        0.5293511800         0.6436057935
p   1 1.0 
        0.1747842100         0.1610897223
d   1 1.0 
        2.3140000000        12.3767310624
d   1 1.0 
        0.6450000000         1.3234257612
f   1 1.0 
        1.4280000000        12.7097950062

  3 0
s   6 1.0 
    27032.3826310000         1.4645050749
     4052.3871392000         1.8244031008
      922.3272271000         2.8547160967
      261.2407098900         4.3654874290
       85.3546413500         5.8940772662
       31.0350352400         6.2963020147
s   1 1.0 
       12.2608607300         4.6698272139
s   1 1.0 
        4.9987076000         2.3826123703
s   1 1.0 
        1.1703108200         0.8019291632
s   1 1.0 
        0.4647474100        -0.4011648063
s   1 1.0 
        0.1850453600         0.2010799377
p   4 1.0 
       63.2749548000         3.0898340730
       14.6270493800         3.3923831935
        4.4501223500         2.9482801524
        1.5275799600         1.7113350234
p   1 1.0 
        0.5293511800         0.6436057935
p   1 1.0 
        0.1747842100         0.1610897223
d   1 1.0 
        2.3140000000        12.3767310624
d   1 1.0 
        0.6450000000         1.3234257612
f   1 1.0 
        1.4280000000        12.7097950062

  4 0
s   6 1.0 
    27032.3826310000         1.4645050749
     4052.3871392000         1.8244031008
      922.3272271000         2.8547160967
      261.2407098900         4.3654874290
       85.3546413500         5.8940772662
       31.0350352400         6.2963020147
s   1 1.0 
       12.2608607300         4.6698272139
s   1 1.0 
        4.9987076000         2.3826123703
s   1 1.0 
        1.1703108200         0.8019291632
s   1 1.0 
        0.4647474100        -0.4011648063
s   1 1.0 
        0.1850453600         0.2010799377
p   4 1.0 
       63.2749548000         3.0898340730
       14.6270493800         3.3923831935
        4.4501223500         2.9482801524
        1.5275799600         1.7113350234
p   1 1.0 
        0.5293511800         0.6436057935
p   1 1.0 
        0.1747842100         0.1610897223
d   1 1.0 
        2.3140000000        12.3767310624
d   1 1.0 
        0.6450000000         1.3234257612
f   1 1.0 
        1.4280000000        12.7097950062

  5 0
s   3 1.0 
       34.0613410000         0.2556300129
        5.1235746000         0.4613599287
        1.1646626000         0.6811215012
s   1 1.0 
        0.3272304100         0.3083545312
s   1 1.0 
        0.1030724100         0.1296483265
p   1 1.0 
        0.8000000000         1.0784563492

  6 0
s   3 1.0 
       34.0613410000         0.2556300129
        5.1235746000         0.4613599287
        1.1646626000         0.6811215012
s   1 1.0 
        0.3272304100         0.3083545312
s   1 1.0 
        0.1030724100         0.1296483265
p   1 1.0 
        0.8000000000         1.0784563492

  7 0
s   3 1.0 
       34.0613410000         0.2556300129
        5.1235746000         0.4613599287
        1.1646626000         0.6811215012
s   1 1.0 
        0.3272304100         0.3083545312
s   1 1.0 
        0.1030724100         0.1296483265
p   1 1.0 
        0.8000000000         1.0784563492

[5D]
[9G]
[MO]
 Sym=     1a
 Ene= -4.84845341077903E+03
 Spin= Alpha
 Occup= 1.000000
  1      -0.097409824061
  2      -0.071186788231
  3      -0.119619502448
  4      -0.183736095999
  5      -0.265428501687
  6      -0.293404661586
  7      -0.181424884223
  8      -0.029056643622
  9      -0.001002710821
 10       0.000731339019
 11      -0.000528045255
 12       0.000383650325
 13      -0.000271602113
 14       0.000185488275
 15      -0.000127012638
 16       0.000089554207
 17      -0.000065144009
 18       0.000041203751
 19       0.000004236887
 20       0.000001329040
 21      -0.000000368058
 22       0.000000082211
 23       0.000000116031
 24      -0.000000203865
 25      -0.000000020211
 26      -0.000000028529
 27       0.000000050115
 28      -0.000000000370
 29      -0.000000000520
 30       0.000000000919
 31      -0.000000001261
 32      -0.000000001782
 33       0.000000003121
 34      -0.000000001639
 35      -0.000000002309
 36       0.000000004075
 37       0.000000008552
 38       0.000000012065
 39      -0.000000021227
 40      -0.000000016095
 41      -0.000000022708
 42       0.000000039946
 43       0.000000038157
 44       0.000000053843
 45      -0.000000094674
 46      -0.000000103760
 47      -0.000000146429
 48       0.000000257365
 49       0.000000307165
 50       0.000000433511
 51      -0.000000761682
 52      -0.000000822107
 53      -0.000001160295
 54       0.000002038469
 55       0.000003492761
 56       0.000004929869
 57      -0.000008659960
 58      -0.000000186337
 59      -0.000000263190
 60       0.000000462214
 61       0.000000019866
 62      -0.000000018303
 63      -0.000000025798
 64      -0.000000003669
 65       0.000000010438
 66      -0.000000026104
 67       0.000000024062
 68       0.000000033927
 69       0.000000004818
 70      -0.000000013708
 71       0.000000026371
 72      -0.000000024310
 73      -0.000000034282
 74      -0.000000004864
 75       0.000000013843
 76      -0.000000035989
 77       0.000000033181
 78       0.000000046800
 79       0.000000006633
 80      -0.000000018884
 81       0.000000055890
 82      -0.000000051531
 83      -0.000000072688
 84      -0.000000010296
 85       0.000000029322
 86      -0.000000086565
 87       0.000000079808
 88       0.000000112577
 89       0.000000015938
 90      -0.000000045410
 91       0.000000096470
 92      -0.000000088926
 93      -0.000000125434
 94      -0.000000017722
 95       0.000000050603
 96      -0.000000044638
 97       0.000000041136
 98       0.000000058035
 99       0.000000008052
100      -0.000000023432
101      -0.000001420635
102       0.000001310716
103       0.000001848885
104       0.000000262850
105      -0.000000745186
106       0.000000138095
107      -0.000000127390
108      -0.000000179687
109      -0.000000025496
110       0.000000072452
111       0.000000000321
112       0.000000007882
113       0.000000011247
114      -0.000000000828
115       0.000000001966
116       0.000000012158
117      -0.000000003301
118      -0.000000000940
119      -0.000000025516
120      -0.000000036406
121       0.000000002555
122      -0.000000006014
123      -0.000000039015
124       0.000000010592
125       0.000000001693
126       0.000000054203
127       0.000000077314
128      -0.000000005016
129       0.000000011676
130       0.000000081792
131      -0.000000022222
132      -0.000000002566
133      -0.000000100449
134      -0.000000143191
135       0.000000008479
136      -0.000000019594
137      -0.000000149498
138       0.000000040715
139       0.000000000905
140       0.000000138278
141       0.000000196485
142      -0.000000007682
143       0.000000017627
144       0.000000195967
145      -0.000000054174
146       0.000000015003
147       0.000000007186
148       0.000000014023
149      -0.000000023364
150       0.000000054123
151       0.000000066501
152      -0.000000013252
153      -0.000000089634
154      -0.000001088964
155      -0.000001569513
156       0.000000188307
157      -0.000000431516
158      -0.000001854313
159       0.000000482369
160       0.000000062138
161      -0.000000286861
162       0.000000548794
163      -0.000001773203
164      -0.000004058012
165      -0.000008371157
166      -0.000000014184
167      -0.000000019237
168      -0.000000101403
169      -0.000000154612
170      -0.000000223025
171      -0.000000340395
172      -0.000001725587
173      -0.000002461462
174      -0.000006254270
175      -0.000000097311
176      -0.000000041679
177      -0.000000059283
178       0.000000007957
179      -0.000000023179
180       0.000000694094
181       0.000000363209
182       0.000000517050
183      -0.000000059722
184       0.000000168698
185       0.000000040907
186       0.000000070653
187       0.000000104216
188      -0.000000024104
189       0.000000061121
190       0.000000025095
191      -0.000000006058
192       0.000000062138
193      -0.000000286867
194       0.000000548814
195      -0.000001773406
196      -0.000004058665
197      -0.000008372722
198      -0.000000013067
199       0.000000097415
200      -0.000000034597
201      -0.000000157181
202       0.000000405542
203       0.000000016309
204      -0.000001721553
205       0.000006636490
206      -0.000001076341
207       0.000000050249
208      -0.000000001403
209       0.000000041712
210       0.000000093926
211       0.000000047189
212      -0.000000429763
213       0.000000040318
214      -0.000000252654
215      -0.000000711457
216      -0.000000396187
217      -0.000000015141
218      -0.000000019997
219       0.000000085381
220      -0.000000018714
221      -0.000000008222
222       0.000000097440
223      -0.000000068423
224       0.000000062144
225      -0.000000286893
226       0.000000548861
227      -0.000001773513
228      -0.000004058762
229      -0.000008374123
230       0.000000096244
231       0.000000019166
232      -0.000000035027
233       0.000000434591
234      -0.000000009065
235       0.000000019059
236       0.000006832251
237       0.000000601125
238      -0.000001061350
239       0.000000050702
240       0.000000039692
241       0.000000012787
242      -0.000000102560
243      -0.000000022114
244      -0.000000431514
245      -0.000000249321
246      -0.000000046827
247       0.000000801981
248       0.000000139826
249      -0.000000013216
250       0.000000087954
251       0.000000011068
252       0.000000016548
253       0.000000005893
254       0.000000118343
255       0.000000012915
256      -0.000000151226
257      -0.000003047354
258      -0.000001123344
259      -0.000000172137
260       0.000000672023
261      -0.000000101410
262      -0.000000151166
263      -0.000003047087
264      -0.000001123219
265      -0.000000181610
266      -0.000000249523
267      -0.000000629515
268      -0.000000151176
269      -0.000003047100
270      -0.000001123339
271       0.000000691077
272       0.000000053233
273      -0.000000105272
 Sym=     1a
 Ene= -9.33823436745828E+02
 Spin= Alpha
 Occup= 1.000000
  1       0.042298993046
  2       0.033466587607
  3       0.054682929972
  4       0.092279622692
  5       0.141740110483
  6       0.170641604725
  7       0.045350797828
  8      -0.398094990711
  9      -0.589953100552
 10      -0.146170619165
 11       0.001279496947
 12      -0.000677829969
 13       0.000200287897
 14      -0.000000465877
 15      -0.000052864956
 16       0.000048260190
 17      -0.000038039802
 18       0.000025241007
 19       0.000002969106
 20       0.000000733347
 21      -0.000000212714
 22      -0.000000021292
 23      -0.000000030102
 24       0.000000052655
 25       0.000000121827
 26       0.000000171873
 27      -0.000000302356
 28       0.000000023094
 29       0.000000032434
 30      -0.000000057560
 31       0.000000536142
 32       0.000000756622
 33      -0.000001329900
 34       0.000000194070
 35       0.000000273978
 36      -0.000000481348
 37      -0.000000076857
 38      -0.000000108515
 39       0.000000190591
 40       0.000000001547
 41       0.000000002212
 42      -0.000000003819
 43       0.000000019609
 44       0.000000027647
 45      -0.000000048653
 46      -0.000000037054
 47      -0.000000052258
 48       0.000000091896
 49       0.000000170962
 50       0.000000241235
 51      -0.000000423851
 52      -0.000000509574
 53      -0.000000719086
 54       0.000001263318
 55       0.000002208099
 56       0.000003116145
 57      -0.000005473995
 58      -0.000000121102
 59      -0.000000171040
 60       0.000000300409
 61       0.000001778412
 62      -0.000001638934
 63      -0.000002310439
 64      -0.000000328423
 65       0.000000934234
 66       0.000000726989
 67      -0.000000670156
 68      -0.000000944856
 69      -0.000000134287
 70       0.000000381895
 71      -0.000000174284
 72       0.000000160674
 73       0.000000226533
 74       0.000000032205
 75      -0.000000091560
 76       0.000000087077
 77      -0.000000080287
 78      -0.000000113195
 79      -0.000000016095
 80       0.000000045752
 81      -0.000000021809
 82       0.000000020109
 83       0.000000028335
 84       0.000000004045
 85      -0.000000011480
 86      -0.000000037310
 87       0.000000034408
 88       0.000000048557
 89       0.000000006859
 90      -0.000000019552
 91       0.000000043368
 92      -0.000000039984
 93      -0.000000056417
 94      -0.000000007954
 95       0.000000022730
 96      -0.000000026158
 97       0.000000024126
 98       0.000000034056
 99       0.000000004720
100      -0.000000013721
101      -0.000000901490
102       0.000000831640
103       0.000001173127
104       0.000000166943
105      -0.000000472816
106       0.000000089268
107      -0.000000082344
108      -0.000000116153
109      -0.000000016494
110       0.000000046830
111      -0.000000003808
112      -0.000000035385
113      -0.000000050715
114       0.000000006953
115      -0.000000017353
116      -0.000000063062
117       0.000000016929
118       0.000000004736
119       0.000000060224
120       0.000000086130
121      -0.000000009449
122       0.000000023277
123       0.000000101082
124      -0.000000027278
125      -0.000000003760
126      -0.000000031428
127      -0.000000045024
128       0.000000006652
129      -0.000000016803
130      -0.000000057328
131       0.000000015433
132      -0.000000000109
133      -0.000000040550
134      -0.000000057721
135       0.000000002154
136      -0.000000004564
137      -0.000000057023
138       0.000000015605
139       0.000000000771
140       0.000000088886
141       0.000000126316
142      -0.000000005189
143       0.000000012000
144       0.000000126626
145      -0.000000034990
146       0.000000009102
147      -0.000000001997
148      -0.000000000475
149      -0.000000013935
150       0.000000032191
151       0.000000031580
152      -0.000000005545
153      -0.000000056550
154      -0.000000684745
155      -0.000000986992
156       0.000000118784
157      -0.000000272029
158      -0.000001166844
159       0.000000303334
160       0.000000039920
161      -0.000000183836
162       0.000000356788
163      -0.000001132907
164      -0.000002580072
165      -0.000005293599
166      -0.000000009067
167      -0.000000012333
168      -0.000000065427
169      -0.000000110694
170      -0.000000159530
171      -0.000000259643
172      -0.000001095572
173      -0.000001562593
174      -0.000003973394
175      -0.000000067395
176      -0.000000030343
177      -0.000000043228
178       0.000000005727
179      -0.000000016522
180       0.000000442166
181       0.000000231889
182       0.000000329875
183      -0.000000038058
184       0.000000107695
185       0.000000024231
186       0.000000043680
187       0.000000064520
188      -0.000000015115
189       0.000000038230
190       0.000000015845
191      -0.000000003815
192       0.000000039922
193      -0.000000183845
194       0.000000356811
195      -0.000001133056
196      -0.000002580504
197      -0.000005294569
198      -0.000000008386
199       0.000000062805
200      -0.000000022414
201      -0.000000112353
202       0.000000304031
203       0.000000003516
204      -0.000001092793
205       0.000004215630
206      -0.000000684708
207       0.000000036328
208      -0.000000001335
209       0.000000027814
210       0.000000066073
211       0.000000034269
212      -0.000000274183
213       0.000000025676
214      -0.000000160578
215      -0.000000453607
216      -0.000000252732
217      -0.000000008767
218      -0.000000012461
219       0.000000053005
220      -0.000000010858
221      -0.000000004746
222       0.000000060711
223      -0.000000041814
224       0.000000039928
225      -0.000000183872
226       0.000000356860
227      -0.000001133177
228      -0.000002580706
229      -0.000005295911
230       0.000000062038
231       0.000000012433
232      -0.000000022669
233       0.000000324010
234      -0.000000001923
235       0.000000005408
236       0.000004339980
237       0.000000382362
238      -0.000000675342
239       0.000000036627
240       0.000000026529
241       0.000000008148
242      -0.000000072827
243      -0.000000014837
244      -0.000000275264
245      -0.000000158619
246      -0.000000029689
247       0.000000511425
248       0.000000088784
249      -0.000000007534
250       0.000000054628
251       0.000000006858
252       0.000000009399
253       0.000000003471
254       0.000000073295
255       0.000000007459
256      -0.000000099215
257      -0.000001975323
258      -0.000000699206
259      -0.000000113930
260       0.000000443840
261      -0.000000066869
262      -0.000000099172
263      -0.000001975183
264      -0.000000699129
265      -0.000000119956
266      -0.000000165054
267      -0.000000415715
268      -0.000000099177
269      -0.000001975229
270      -0.000000699233
271       0.000000456515
272       0.000000035181
273      -0.000000069281
 Sym=     1a
 Ene= -7.69532310901552E+02
 Spin= Alpha
 Occup= 1.000000
  1      -0.000000000018
  2      -0.000000000014
  3      -0.000000000027
  4      -0.000000000032
  5      -0.000000000083
  6      -0.000000000027
  7      -0.000000000090
  8       0.000000000390
  9       0.000000000383
 10      -0.000000000395
 11      -0.000000000465
 12       0.000000000751
 13      -0.000000000822
 14       0.000000000891
 15      -0.000000000434
 16      -0.000000002925
 17       0.000000012706
 18      -0.000000029998
 19       0.000000049268
 20      -0.000000014452
 21       0.000000002957
 22      -0.164919694851
 23       0.087575128000
 24      -0.016693665198
 25      -0.270948213139
 26       0.143878052061
 27      -0.027426189167
 28      -0.399219935890
 29       0.211992491489
 30      -0.040410237065
 31      -0.204822480904
 32       0.108764177470
 33      -0.020732744409
 34      -0.006002525260
 35       0.003187442092
 36      -0.000607594109
 37      -0.003844324284
 38       0.002041400009
 39      -0.000389132956
 40       0.002650835394
 41      -0.001407636659
 42       0.000268323639
 43      -0.001657284832
 44       0.000880043133
 45      -0.000167752260
 46       0.001046805305
 47      -0.000555864313
 48       0.000105956048
 49      -0.000715400429
 50       0.000379871419
 51      -0.000072408912
 52       0.000543491382
 53      -0.000288565625
 54       0.000055007873
 55      -0.000512725331
 56       0.000272214769
 57      -0.000051881256
 58       0.000038962273
 59      -0.000020647417
 60       0.000003967808
 61       0.000000010668
 62      -0.000000266619
 63       0.000000224794
 64      -0.000000369825
 65      -0.000000061684
 66      -0.000000261946
 67      -0.000000625840
 68       0.000000232122
 69       0.000001873379
 70       0.000000632793
 71       0.000000251189
 72       0.000000060304
 73       0.000000210044
 74      -0.000002348464
 75      -0.000000676940
 76      -0.000000478393
 77      -0.000000457105
 78      -0.000000125226
 79       0.000004126934
 80       0.000001247356
 81       0.000000915860
 82       0.000001005327
 83       0.000000134957
 84      -0.000007769913
 85      -0.000002372862
 86      -0.000001972463
 87      -0.000002172964
 88      -0.000000283517
 89       0.000016723722
 90       0.000005110948
 91       0.000005498283
 92       0.000006868106
 93       0.000000136601
 94      -0.000045773266
 95      -0.000014146469
 96      -0.000013508438
 97      -0.000017744714
 98       0.000000365652
 99       0.000111511011
100       0.000034631340
101       0.000033493610
102       0.000042858758
103       0.000000011218
104      -0.000277796769
105      -0.000086050625
106      -0.000003725934
107      -0.000007523009
108       0.000002206312
109       0.000027908189
110       0.000009155096
111       0.000000184255
112       0.000000898098
113      -0.000000716561
114      -0.000000965036
115      -0.000000477582
116      -0.000000006252
117      -0.000000346291
118      -0.000000030147
119      -0.000001071881
120       0.000000882831
121       0.000000189890
122       0.000000205408
123      -0.000000233883
124      -0.000000340740
125      -0.000000142239
126       0.000001754249
127      -0.000001472422
128       0.000000661570
129       0.000000032627
130       0.000000626416
131       0.000001320026
132       0.000000430479
133      -0.000003561748
134       0.000003009659
135      -0.000002063595
136      -0.000000339674
137      -0.000001452089
138      -0.000003245099
139      -0.000001242036
140       0.000009636892
141      -0.000008153999
142       0.000005977330
143       0.000001068372
144       0.000004027696
145       0.000009089490
146       0.000003850173
147      -0.000030106741
148       0.000025470129
149      -0.000018525067
150      -0.000003279472
151      -0.000012547920
152      -0.000028280613
153      -0.000007172917
154       0.000053528330
155      -0.000045355663
156       0.000034568577
157       0.000006424563
158       0.000022745794
159       0.000051548815
160       0.000000314508
161      -0.000001500322
162       0.000002937127
163      -0.000010438256
164      -0.000023404436
165      -0.000064479068
166      -0.000000962759
167      -0.000000050539
168      -0.000001065428
169       0.000005419989
170       0.000002252879
171       0.000009001206
172      -0.000022140813
173       0.000003737786
174      -0.000015805644
175      -0.000000022987
176      -0.000000059071
177      -0.000000173423
178      -0.000001162603
179      -0.000000417238
180       0.000002524723
181       0.000001793730
182       0.000002873456
183       0.000003002755
184       0.000001950017
185       0.000000173950
186      -0.000000232425
187       0.000000520660
188      -0.000000303237
189       0.000000033675
190      -0.000000106561
191      -0.000000314001
192       0.000001644818
193      -0.000007846889
194       0.000015363973
195      -0.000054650756
196      -0.000122674143
197      -0.000337536049
198      -0.000002198051
199       0.000005953270
200      -0.000000909171
201       0.000016649452
202      -0.000050735853
203       0.000006854040
204      -0.000039964315
205       0.000088124073
206      -0.000013111056
207       0.000001035192
208      -0.000000042210
209       0.000000072649
210      -0.000000079980
211       0.000000537801
212      -0.000012795984
213       0.000001106220
214      -0.000003531119
215      -0.000014312229
216      -0.000011162764
217      -0.000000244850
218      -0.000000486115
219       0.000001153758
220      -0.000000542743
221      -0.000000232861
222       0.000000690944
223      -0.000001182082
224      -0.000001959071
225       0.000009345987
226      -0.000018298675
227       0.000065080380
228       0.000146059350
229       0.000401961264
230      -0.000007558887
231      -0.000000212474
232       0.000000890070
233       0.000063585973
234       0.000002959342
235      -0.000007215850
236      -0.000114922643
237       0.000001784835
238       0.000010831776
239      -0.000000953194
240       0.000000057753
241       0.000000206406
242       0.000000505550
243      -0.000000305608
244       0.000014498874
245       0.000003657298
246      -0.000000343066
247      -0.000022087690
248      -0.000001541046
249       0.000000400872
250      -0.000001365565
251       0.000000116614
252      -0.000000675361
253      -0.000000100954
254      -0.000001534600
255      -0.000000643207
256      -0.000003635301
257       0.000016032516
258       0.000004801596
259       0.000002765258
260      -0.000006199805
261       0.000000681080
262      -0.000000701037
263       0.000003037215
264       0.000000990127
265       0.000001300741
266      -0.000000039159
267       0.000001089558
268       0.000004336860
269      -0.000019054543
270      -0.000005790094
271       0.000008066760
272      -0.000000079462
273      -0.000000474101
 Sym=     1a
 Ene= -7.69532307367896E+02
 Spin= Alpha
 Occup= 1.000000
  1       0.000000000022
  2       0.000000000019
  3       0.000000000028
  4       0.000000000056
  5       0.000000000073
  6       0.000000000096
  7      -0.000000000038
  8      -0.000000000412
  9      -0.000000001091
 10       0.000000001976
 11      -0.000000000434
 12       0.000000000213
 13      -0.000000000956
 14       0.000000001914
 15      -0.000000004051
 16       0.000000013315
 17      -0.000000046275
 18       0.000000089096
 19      -0.000000096694
 20       0.000000026036
 21      -0.000000004646
 22      -0.064059457671
 23      -0.140820269629
 24      -0.105889683869
 25      -0.105243922548
 26      -0.231355026895
 27      -0.173967218947
 28      -0.155068275030
 29      -0.340882628348
 30      -0.256326406607
 31      -0.079558822333
 32      -0.174892127342
 33      -0.131509989505
 34      -0.002331549636
 35      -0.005125385537
 36      -0.003854027732