[Molden Format]
[Title]
 Molden file created by orca_2mkl for BaseName=/data01/Nikolayandreadi/heavy/opt3/NpO2_+

[Atoms] AU
Np   1  93         -0.8375190636         0.0001719651        -0.0190919031 
O    2   8         -1.0712857453        -3.1175001004         0.0127367541 
O    3   8         -1.0699421500         3.1179366271         0.0135531158 
[GTO]
  1 0
s   9 1.0 
 60212393.7825810015     16460.1280594584
 27369269.9011729993     -6013.5086094560
 12440577.2278060000      9343.9211279925
  5654807.8308210000       308.3663916485
  2570367.1958280001      4334.3325603517
  1168348.7253759999      1972.8827387435
   531067.6024440000      2728.3967901233
   241394.3647470000      2034.2792369220
   109724.7112490000      2086.3436128711
s   1 1.0 
    49874.8687490000      2378.6000111367
s   1 1.0 
    22670.3948860000      1316.7532712607
s   1 1.0 
    10304.7249480000       728.9326365214
s   1 1.0 
     4683.9658860000       403.5249429308
s   1 1.0 
     2129.0754030000       223.3846742626
s   1 1.0 
      967.7615470000       123.6620277677
s   1 1.0 
      439.8916120000        68.4572348252
s   1 1.0 
      199.9507330000        37.8967827997
s   1 1.0 
       90.8866970000        20.9790265547
s   1 1.0 
       41.3121350000        11.6136389953
s   1 1.0 
       18.7782430000         6.4291166887
s   1 1.0 
        8.5355650000         3.5590517075
s   1 1.0 
        3.8798020000         1.9702315267
s   1 1.0 
        1.7635460000         1.0906871246
s   1 1.0 
        0.8016120000         0.6037862931
s   1 1.0 
        0.3643690000         0.3342459531
s   1 1.0 
        0.1656220000         0.1850327531
s   1 1.0 
        0.0752830000         0.1024313225
s   1 1.0 
        0.0342190000         0.0567035929
s   1 1.0 
        0.0155540000         0.0313900251
p   8 1.0 
   859302.8310040000    131775.7051530663
   358042.8462520000     11325.8407160590
   149184.5192720000     38266.0812549783
    62160.2163630000     19009.8155098714
    25900.0901510000     18342.5702252260
    10791.7042300000     14732.4699955005
     4496.5434290000     13756.3118120073
     1873.5597620000     12431.3284313481
p   1 1.0 
      780.6499010000      5881.8029941886
p   1 1.0 
      325.2707920000      1969.0031994381
p   1 1.0 
      135.5294970000       659.1471384521
p   1 1.0 
       56.4706240000       220.6573109288
p   1 1.0 
       23.5294270000        73.8676489948
p   1 1.0 
        9.8039280000        24.7280704473
p   1 1.0 
        4.0849700000         8.2780143929
p   1 1.0 
        1.7020710000         2.7711636791
p   1 1.0 
        0.7091960000         0.9276794468
p   1 1.0 
        0.2954980000         0.3105512418
p   1 1.0 
        0.1231240000         0.1039605296
p   1 1.0 
        0.0513020000         0.0348023010
d   7 1.0 
    42129.4422870000     56906.5227948507
    16851.7769150000     28000.6591442440
     6740.7107660000     31059.1451506409
     2696.2843060000     28550.8495479176
     1078.5137230000     30419.9475915360
      431.4054890000     27516.9214778059
      172.5621960000     18646.3556919396
d   1 1.0 
       69.0248780000      4712.2678372904
d   1 1.0 
       27.6099510000       948.0580852984
d   1 1.0 
       11.0439810000       190.7392068921
d   1 1.0 
        4.4175920000        38.3746907348
d   1 1.0 
        1.7670370000         7.7205805666
d   1 1.0 
        0.7068150000         1.5532993453
d   1 1.0 
        0.2827260000         0.3125072837
d   1 1.0 
        0.1130900000         0.0628727477
d   1 1.0 
        0.0452360000         0.0126493272
f   6 1.0 
     4574.1842730000     62886.0548377263
     1759.3016440000     54541.2436081452
      676.6544780000     60258.2175061621
      260.2517220000     58997.4055482529
      100.0968160000     42811.8352412536
       38.4987760000     17381.1576470009
f   1 1.0 
       14.8072210000      2452.2547560014
f   1 1.0 
        5.6950850000       285.6771815775
f   1 1.0 
        2.1904170000        33.2801582217
f   1 1.0 
        0.8424680000         3.8769951722
f   1 1.0 
        0.3240260000         0.4516528586
f   1 1.0 
        0.1246250000         0.0526152593

  2 0
s   6 1.0 
    27032.3826310000         1.4645050749
     4052.3871392000         1.8244031008
      922.3272271000         2.8547160967
      261.2407098900         4.3654874290
       85.3546413500         5.8940772662
       31.0350352400         6.2963020147
s   1 1.0 
       12.2608607300         4.6698272139
s   1 1.0 
        4.9987076000         2.3826123703
s   1 1.0 
        1.1703108200         0.8019291632
s   1 1.0 
        0.4647474100        -0.4011648063
s   1 1.0 
        0.1850453600         0.2010799377
p   4 1.0 
       63.2749548000         3.0898340730
       14.6270493800         3.3923831935
        4.4501223500         2.9482801524
        1.5275799600         1.7113350234
p   1 1.0 
        0.5293511800         0.6436057935
p   1 1.0 
        0.1747842100         0.1610897223
d   1 1.0 
        2.3140000000        12.3767310624
d   1 1.0 
        0.6450000000         1.3234257612
f   1 1.0 
        1.4280000000        12.7097950062

  3 0
s   6 1.0 
    27032.3826310000         1.4645050749
     4052.3871392000         1.8244031008
      922.3272271000         2.8547160967
      261.2407098900         4.3654874290
       85.3546413500         5.8940772662
       31.0350352400         6.2963020147
s   1 1.0 
       12.2608607300         4.6698272139
s   1 1.0 
        4.9987076000         2.3826123703
s   1 1.0 
        1.1703108200         0.8019291632
s   1 1.0 
        0.4647474100        -0.4011648063
s   1 1.0 
        0.1850453600         0.2010799377
p   4 1.0 
       63.2749548000         3.0898340730
       14.6270493800         3.3923831935
        4.4501223500         2.9482801524
        1.5275799600         1.7113350234
p   1 1.0 
        0.5293511800         0.6436057935
p   1 1.0 
        0.1747842100         0.1610897223
d   1 1.0 
        2.3140000000        12.3767310624
d   1 1.0 
        0.6450000000         1.3234257612
f   1 1.0 
        1.4280000000        12.7097950062

[5D]
[7F]
[9G]
[MO]
 Sym=     1a
 Ene= -4.37362696085152E+03
 Spin= Alpha
 Occup= 1.000000
  1       0.087306451948
  2       0.066328216000
  3       0.113242620692
  4       0.178787903833
  5       0.264676444173
  6       0.301328081467
  7       0.190680715499
  8       0.031596749958
  9       0.000892987184
 10      -0.000634294663
 11       0.000462310430
 12      -0.000341605716
 13       0.000243042522
 14      -0.000164599764
 15       0.000110655687
 16      -0.000075425787
 17       0.000051331250
 18      -0.000032506104
 19       0.000009321313
 20      -0.000004823305
 21       0.000001381358
 22       0.000000010535
 23      -0.000000000003
 24      -0.000000001457
 25      -0.000000014848
 26       0.000000000003
 27       0.000000002054
 28      -0.000000006608
 29       0.000000000001
 30       0.000000000914
 31       0.000000001114
 32       0.000000000000
 33      -0.000000000154
 34      -0.000000003531
 35       0.000000000000
 36       0.000000000488
 37       0.000000008418
 38      -0.000000000001
 39      -0.000000001164
 40      -0.000000012661
 41       0.000000000002
 42       0.000000001751
 43       0.000000023597
 44      -0.000000000004
 45      -0.000000003263
 46      -0.000000051963
 47       0.000000000010
 48       0.000000007186
 49       0.000000138813
 50      -0.000000000027
 51      -0.000000019198
 52      -0.000000312501
 53       0.000000000062
 54       0.000000043219
 55       0.000000871821
 56      -0.000000000169
 57      -0.000000120572
 58      -0.000000037204
 59       0.000000000007
 60       0.000000005145
 61       0.000000011533
 62      -0.000000000056
 63      -0.000000000005
 64       0.000000020367
 65      -0.000000000009
 66      -0.000000033890
 67       0.000000000003
 68       0.000000000015
 69      -0.000000058717
 70       0.000000000025
 71      -0.000000024338
 72      -0.000000000093
 73       0.000000000011
 74      -0.000000041497
 75       0.000000000018
 76       0.000000070104
 77       0.000000000161
 78      -0.000000000032
 79       0.000000120284
 80      -0.000000000052
 81      -0.000000149918
 82      -0.000000000294
 83       0.000000000068
 84      -0.000000257578
 85       0.000000000111
 86       0.000000279475
 87       0.000000000487
 88      -0.000000000126
 89       0.000000480610
 90      -0.000000000207
 91      -0.000000372231
 92      -0.000000000295
 93       0.000000000169
 94      -0.000000642627
 95       0.000000000277
 96       0.000000073248
 97      -0.000000001522
 98      -0.000000000034
 99       0.000000137664
100      -0.000000000059
101       0.000001884073
102       0.000000010713
103      -0.000000000847
104       0.000003187330
105      -0.000000001375
106      -0.000000406620
107      -0.000000001066
108       0.000000000184
109      -0.000000696725
110       0.000000000300
111      -0.000000000318
112       0.000000000939
113      -0.000000000000
114      -0.000000000408
115      -0.000000000001
116      -0.000000003621
117       0.000000000002
118       0.000000000953
119      -0.000000002814
120       0.000000000000
121       0.000000001223
122       0.000000000002
123       0.000000010854
124      -0.000000000007
125      -0.000000002080
126       0.000000006140
127      -0.000000000000
128      -0.000000002672
129      -0.000000000004
130      -0.000000023704
131       0.000000000015
132       0.000000004062
133      -0.000000011989
134       0.000000000000
135       0.000000005224
136       0.000000000008
137       0.000000046318
138      -0.000000000029
139      -0.000000006318
140       0.000000018651
141      -0.000000000000
142      -0.000000008163
143      -0.000000000012
144      -0.000000072272
145       0.000000000046
146      -0.000000005436
147       0.000000016020
148      -0.000000000000
149      -0.000000006673
150      -0.000000000010
151      -0.000000060119
152       0.000000000038
153       0.000000035813
154      -0.000000105645
155       0.000000000002
156       0.000000045248
157       0.000000000067
158       0.000000403634
159      -0.000000000253
160      -0.000000015135
161       0.000000069429
162      -0.000000138099
163       0.000000750254
164       0.000001922337
165       0.000005672988
166      -0.000000011619
167       0.000000017335
168       0.000000001610
169       0.000000005096
170      -0.000000622201
171      -0.000000000805
172      -0.000000076590
173       0.000002003632
174       0.000000010914
175       0.000000038051
176      -0.000000000310
177       0.000000001826
178       0.000000068089
179      -0.000000013357
180       0.000000170999
181       0.000000001389
182       0.000000003513
183       0.000000286297
184      -0.000000026079
185       0.000000001296
186      -0.000000003833
187      -0.000000009215
188       0.000000001628
189      -0.000000000587
190       0.000000014588
191       0.000000008472
192      -0.000000015135
193       0.000000069429
194      -0.000000138099
195       0.000000750255
196       0.000001922336
197       0.000005672981
198      -0.000000011626
199      -0.000000017331
200       0.000000001605
201       0.000000005364
202       0.000000622199
203      -0.000000000642
204      -0.000000077453
205      -0.000002003600
206       0.000000010390
207       0.000000038050
208      -0.000000000307
209      -0.000000001861
210       0.000000068100
211       0.000000013298
212       0.000000170997
213       0.000000001394
214      -0.000000003666
215       0.000000286319
216       0.000000025832
217       0.000000001302
218      -0.000000003829
219       0.000000009215
220       0.000000001635
221       0.000000000592
222       0.000000014577
223      -0.000000008490
 Sym=     1a
 Ene= -8.29278462832875E+02
 Spin= Alpha
 Occup= 1.000000
  1      -0.037061866532
  2      -0.030425953712
  3      -0.050706286606
  4      -0.087784316427
  5      -0.139377724476
  6      -0.176535913937
  7      -0.067157338109
  8       0.374928454982
  9       0.607144805621
 10       0.165185492140
 11      -0.001954384780
 12       0.001581031204
 13      -0.000814786421
 14       0.000402478236
 15      -0.000216936448
 16       0.000137669367
 17      -0.000090939804
 18       0.000056555675
 19      -0.000016250883
 20       0.000008357696
 21      -0.000002388287
 22      -0.000000289182
 23       0.000000000053
 24       0.000000039996
 25      -0.000000416828
 26       0.000000000077
 27       0.000000057653
 28      -0.000000944564
 29       0.000000000176
 30       0.000000130635
 31      -0.000000301400
 32       0.000000000052
 33       0.000000041693
 34       0.000000144566
 35      -0.000000000030
 36      -0.000000020002
 37      -0.000000105324
 38       0.000000000021
 39       0.000000014573
 40       0.000000061004
 41      -0.000000000012
 42      -0.000000008441
 43      -0.000000059037
 44       0.000000000011
 45       0.000000008168
 46       0.000000112911
 47      -0.000000000021
 48      -0.000000015618
 49      -0.000000254475
 50       0.000000000050
 51       0.000000035195
 52       0.000000528447
 53      -0.000000000105
 54      -0.000000073084
 55      -0.000001490902
 56       0.000000000289
 57       0.000000206191
 58       0.000000063289
 59      -0.000000000012
 60      -0.000000008753
 61       0.000001129311
 62      -0.000000006205
 63      -0.000000000516
 64       0.000002000017
 65      -0.000000000863
 66       0.000001698626
 67       0.000000000207
 68      -0.000000000770
 69       0.000002940648
 70      -0.000000001268
 71      -0.000000374040
 72       0.000000000806
 73       0.000000000170
 74      -0.000000653578
 75       0.000000000282
 76       0.000000224915
 77      -0.000000000270
 78      -0.000000000102
 79       0.000000391482
 80      -0.000000000169
 81       0.000000029164
 82       0.000000000313
 83      -0.000000000013
 84       0.000000048293
 85      -0.000000000021
 86      -0.000000401471
 87      -0.000000000801
 88       0.000000000182
 89      -0.000000689688
 90       0.000000000297
 91       0.000000491886
 92       0.000000000308
 93      -0.000000000223
 94       0.000000849782
 95      -0.000000000366
 96      -0.000000078711
 97       0.000000002583
 98       0.000000000038
 99      -0.000000154631
100       0.000000000067
101      -0.000003248349
102      -0.000000018297
103       0.000000001460
104      -0.000005496545
105       0.000000002371
106       0.000000702032
107       0.000000001823
108      -0.000000000317
109       0.000001203031
110      -0.000000000519
111      -0.000000004222
112       0.000000012456
113      -0.000000000001
114      -0.000000005374
115      -0.000000000008
116      -0.000000047816
117       0.000000000030
118      -0.000000000408
119       0.000000001204
120      -0.000000000000
121      -0.000000000517
122      -0.000000000001
123      -0.000000004608
124       0.000000000003
125       0.000000003332
126      -0.000000009834
127       0.000000000000
128       0.000000004265
129       0.000000000006
130       0.000000037880
131      -0.000000000024
132      -0.000000005976
133       0.000000017639
134      -0.000000000001
135      -0.000000007690
136      -0.000000000011
137      -0.000000068175
138       0.000000000043
139       0.000000009023
140      -0.000000026638
141       0.000000000001
142       0.000000011686
143       0.000000000017
144       0.000000103377
145      -0.000000000066
146       0.000000009774
147      -0.000000028808
148       0.000000000000
149       0.000000012031
150       0.000000000018
151       0.000000108288
152      -0.000000000068
153      -0.000000061311
154       0.000000180860
155      -0.000000000003
156      -0.000000077468
157      -0.000000000115
158      -0.000000691039
159       0.000000000434
160       0.000000022590
161      -0.000000107932
162       0.000000213369
163      -0.000001215740
164      -0.000003250778
165      -0.000009743283
166       0.000000020415
167      -0.000000009290
168      -0.000000002825
169      -0.000000010775
170       0.000001021550
171       0.000000001654
172       0.000000128068
173      -0.000003447864
174      -0.000000018266
175      -0.000000070127
176       0.000000000537
177      -0.000000003171
178      -0.000000125247
179       0.000000023218
180      -0.000000261117
181      -0.000000002338
182      -0.000000005199
183      -0.000000435641
184       0.000000038625
185      -0.000000002853
186       0.000000008468
187       0.000000045530
188      -0.000000003602
189       0.000000001093
190      -0.000000032336
191      -0.000000052396
192       0.000000022591
193      -0.000000107932
194       0.000000213370
195      -0.000001215741
196      -0.000003250777
197      -0.000009743273
198       0.000000020419
199       0.000000009283
200      -0.000000002823
201      -0.000000011215
202      -0.000001021547
203       0.000000001387
204       0.000000129555
205       0.000003447811
206      -0.000000017363
207      -0.000000070126
208       0.000000000532
209       0.000000003236
210      -0.000000125266
211      -0.000000023110
212      -0.000000261115
213      -0.000000002346
214       0.000000005433
215      -0.000000435674
216      -0.000000038249
217      -0.000000002882
218       0.000000008448
219      -0.000000045530
220      -0.000000003638
221      -0.000000001104
222      -0.000000032268
223       0.000000052435
 Sym=     1a
 Ene= -6.93607491968622E+02
 Spin= Alpha
 Occup= 1.000000
  1       0.000000055260
  2       0.000000045833
  3       0.000000074071
  4       0.000000135737
  5       0.000000197227
  6       0.000000295068
  7       0.000000017825
  8      -0.000000497897
  9      -0.000000619231
 10      -0.000000592378
 11      -0.000000678123
 12       0.000001229222
 13      -0.000001410792
 14       0.000001375119
 15       0.000000251509
 16      -0.000006947765
 17       0.000018529779
 18      -0.000028119474
 19       0.000057930871
 20      -0.000015507566
 21       0.000003484001
 22      -0.178263580620
 23       0.000035310946
 24       0.024468724523
 25      -0.301353935768
 26       0.000059693019
 27       0.041364289971
 28      -0.452148438345
 29       0.000089562816
 30       0.062062567878
 31      -0.236675605907
 32       0.000046881358
 33       0.032486446273
 34      -0.007738520108
 35       0.000001532858
 36       0.001062200639
 37      -0.004334214484
 38       0.000000858549
 39       0.000594920971
 40       0.002995522779
 41      -0.000000593389
 42      -0.000411170314
 43      -0.001843355810
 44       0.000000365185
 45       0.000253022426
 46       0.001113043635
 47      -0.000000220557
 48      -0.000152779121
 49      -0.000670251913
 50       0.000000132908
 51       0.000092001446
 52       0.000389483495
 53      -0.000000077340
 54      -0.000053462962
 55      -0.000209409670
 56       0.000000041688
 57       0.000028747029
 58       0.000048913784
 59      -0.000000009671
 60      -0.000006713609
 61      -0.000000253189
 62      -0.000000087269
 63       0.000000000052
 64       0.000000182874
 65      -0.000000000063
 66       0.000000212349
 67       0.000000057062
 68      -0.000000000056
 69      -0.000000038487
 70       0.000000000011
 71      -0.000000415311
 72      -0.000000026569
 73       0.000000000169
 74      -0.000000530192
 75       0.000000000232
 76       0.000000690954
 77       0.000000037868
 78      -0.000000000286
 79       0.000000927197
 80      -0.000000000404
 81      -0.000001273928
 82      -0.000000058105
 83       0.000000000536
 84      -0.000001792891
 85       0.000000000779
 86       0.000002472914
 87       0.000000097668
 88      -0.000000001052
 89       0.000003588003
 90      -0.000000001557
 91      -0.000004716296
 92      -0.000000221119
 93       0.000000001981
 94      -0.000006594869
 95       0.000000002866
 96       0.000006273877
 97       0.000000471338
 98      -0.000000002509
 99       0.000007511295
100      -0.000000003290
101      -0.000012880453
102      -0.000000853374
103       0.000000005230
104      -0.000016234564
105       0.000000007107
106       0.000000687543
107       0.000000001211
108      -0.000000000311
109       0.000001182293
110      -0.000000000510
111       0.000000076296
112      -0.000000227410
113       0.000000000004
114       0.000000104102
115       0.000000000148
116       0.000000912230
117      -0.000000000575
118      -0.000000049677
119       0.000000148320
120      -0.000000000001
121      -0.000000069389
122      -0.000000000097
123      -0.000000603958
124       0.000000000379
125      -0.000000050271
126       0.000000148630
127      -0.000000000006
128      -0.000000058183
129      -0.000000000092
130      -0.000000537925
131       0.000000000342
132       0.000000235192
133      -0.000000697802
134       0.000000000021
135       0.000000291668
136       0.000000000441
137       0.000002635387
138      -0.000000001665
139      -0.000000644770
140       0.000001913788
141      -0.000000000055
142      -0.000000804538
143      -0.000000001213
144      -0.000007255632
145       0.000000004581
146       0.000001901939
147      -0.000005647325
148       0.000000000166
149       0.000002375331
150       0.000000003580
151       0.000021422372
152      -0.000000013532
153      -0.000002840125
154       0.000008434183
155      -0.000000000219
156      -0.000003552964
157      -0.000000005350
158      -0.000032027347
159       0.000000020197
160       0.000000132119
161      -0.000000578149
162       0.000000957693
163      -0.000003048353
164      -0.000014932765
165      -0.000034910511
166       0.000002690768
167       0.000000527224
168      -0.000000369344
169      -0.000014932685
170       0.000003562753
171       0.000002050240
172       0.000031412149
173      -0.000007028501
174      -0.000004312666
175      -0.000000219428
176       0.000000011494
177      -0.000000077369
178      -0.000000461254
179       0.000000563877
180       0.000000783306
181       0.000000116627
182       0.000001116653
183       0.000000516806
184      -0.000008134845
185      -0.000000004518
186       0.000000013895
187       0.000001470290
188      -0.000000000531
189       0.000000027044
190      -0.000000023860
191      -0.000001741087
192       0.000000132120
193      -0.000000578157
194       0.000000957707
195      -0.000003048410
196      -0.000014933005
197      -0.000034910900
198       0.000002690539
199      -0.000000528292
200      -0.000000369482
201      -0.000014934194
202      -0.000003556943
203       0.000002049305
204       0.000031415140
205       0.000007016147
206      -0.000004310823
207      -0.000000219396
208       0.000000011380
209       0.000000077585
210      -0.000000461726
211      -0.000000563483
212       0.000000782799
213       0.000000118275
214      -0.000001117195
215       0.000000523525
216       0.000008134363
217      -0.000000005462
218       0.000000013253
219      -0.000001470308
220      -0.000000001723
221      -0.000000027056
222      -0.000000021612
223       0.000001741135
 Sym=     1a
 Ene= -6.93607472046683E+02
 Spin= Alpha
 Occup= 1.000000
  1      -0.000000000057
  2      -0.000000000047
  3      -0.000000000076
  4      -0.000000000140
  5      -0.000000000203
  6      -0.000000000303
  7      -0.000000000019
  8       0.000000000513
  9       0.000000000643
 10       0.000000000600
 11       0.000000000698
 12      -0.000000001264
 13       0.000000001441
 14      -0.000000001422
 15      -0.000000000203
 16       0.000000007010
 17      -0.000000018814
 18       0.000000028580
 19      -0.000000059012
 20       0.000000015806
 21      -0.000000003555
 22      -0.024468720067
 23       0.000028494656
 24      -0.178263589134
 25      -0.041364281953
 26       0.000048170113
 27      -0.301353946825
 28      -0.062062557993
 29       0.000072273954
 30      -0.452148469489
 31      -0.032486427627
 32       0.000037831552
 33      -0.236675526944
 34      -0.001062216092
 35       0.000001236999
 36      -0.007738632418
 37      -0.000594892257
 38       0.000000692751
 39      -0.004334009422
 40       0.000411118837
 41      -0.000000478716
 42       0.002995153596
 43      -0.000252934546
 44       0.000000294463
 45      -0.001842725146
 46       0.000152632848
 47      -0.000000177611
 48       0.001111993918
 49      -0.000091777622
 50       0.000000106669
 51      -0.000668645612
 52       0.000053211067
 53      -0.000000061718
 54       0.000387675673
 55      -0.000028324811
 56       0.000000032611
 57      -0.000206379494
 58       0.000006763297
 59      -0.000000007901
 60       0.000049270376
 61      -0.000000075421
 62       0.000000309972
 63      -0.000000000051
 64       0.000000043507
 65      -0.000000000059
 66       0.000000048929
 67      -0.000000201292
 68       0.000000000038
 69      -0.000000028339
 70       0.000000000037
 71      -0.000000021723
 72       0.000000090694
 73      -0.000000000016
 74       0.000000013332
 75      -0.000000000027
 76       0.000000030519
 77      -0.000000127891
 78       0.000000000017
 79      -0.000000018992
 80       0.000000000094
 81      -0.000000046045
 82       0.000000193950
 83      -0.000000000026
 84       0.000000029192
 85      -0.000000000148
 86       0.000000076149
 87      -0.000000322221
 88       0.000000000051
 89      -0.000000049077
 90       0.000000000145
 91      -0.000000174720
 92       0.000000735325
 93      -0.000000000130
 94       0.000000110357
 95      -0.000000000183
 96       0.000000383796
 97      -0.000001598165
 98       0.000000000287
 99      -0.000000232890
100       0.000000000323
101      -0.000000693263
102       0.000002893370
103      -0.000000000514
104       0.000000424361
105      -0.000000000547
106      -0.000000001360
107       0.000000002705
108      -0.000000000002
109      -0.000000000819
110       0.000000000002
111      -0.000000581105
112      -0.000000029624
113       0.000000000321
114      -0.000000763032
115       0.000000000353
116       0.000000128336
117      -0.000000000226
118       0.000000422200
119       0.000000020959
120      -0.000000000246
121       0.000000556860
122      -0.000000000259
123      -0.000000093726
124       0.000000000162
125       0.000000236693
126       0.000000016642
127      -0.000000000135
128       0.000000290761
129      -0.000000000137
130      -0.000000048662
131       0.000000000065
132      -0.000001438329
133      -0.000000086553
134       0.000000000853
135      -0.000001830709
136       0.000000000856
137       0.000000307280
138      -0.000000000481
139       0.000004084302
140       0.000000242748
141      -0.000000002427
142       0.000005211869
143      -0.000000002437
144      -0.000000875069
145       0.000000001379
146      -0.000012665393
147      -0.000000750301
148       0.000000007515
149      -0.000016173839
150       0.000000007561
151       0.000002716717
152      -0.000000004268
153       0.000019147569
154       0.000001130858
155      -0.000000011386
156       0.000024466972
157      -0.000000011438
158      -0.000004110149
159       0.000000006493
160      -0.000000000131
161       0.000000000536
162      -0.000000000915
163       0.000000003051
164       0.000000015029
165       0.000000035241
166       0.000000357304
167      -0.000000000947
168       0.000002603750
169      -0.000002051608
170      -0.000000001168
171      -0.000014946702
172       0.000004330429
173       0.000000002035
174       0.000031547822
175       0.000000011132
176      -0.000000044159
177       0.000000462168
178      -0.000000005687
179       0.000000063341
180       0.000000094937
181      -0.000000401169
182      -0.000007791561
183      -0.000000058295
184      -0.000001069054
185      -0.000000250472
186      -0.000000011907
187       0.000000012287
188      -0.000000333126
189      -0.000000061004
190       0.000000056490
191       0.000000012233
192      -0.000000000133
193       0.000000000582
194      -0.000000000984
195       0.000000003162
196       0.000000015407
197       0.000000035933
198       0.000000357302
199       0.000000000135
200       0.000002603751
201      -0.000002051625
202       0.000000006059
203      -0.000014946690
204       0.000004330450
205      -0.000000012291
206       0.000031547801
207       0.000000010935
208      -0.000000044375
209      -0.000000462154
210      -0.000000005844
211      -0.000000063322
212       0.000000098458
213      -0.000000397531
214       0.000007791706
215      -0.000000055349
216       0.000001069215
217      -0.000000250473
218      -0.000000011888
219      -0.000000011967
220      -0.000000333066
221       0.000000061315
222       0.000000056461
223      -0.000000012432
 Sym=     1a
 Ene= -6.93604846164790E+02
 Spin= Alpha
 Occup= 1.000000
  1      -0.000000000001
  2      -0.000000000001
  3      -0.000000000001
  4      -0.000000000002
  5      -0.000000000004
  6      -0.000000000005
  7      -0.000000000001
  8       0.000000000010
  9       0.000000000019
 10      -0.000000000002
 11       0.000000000006
 12      -0.000000000013
 13       0.000000000018
 14      -0.000000000016
 15      -0.000000000014
 16       0.000000000108
 17      -0.000000000212
 18       0.000000000157
 19      -0.000000000028
 20       0.000000000011
 21      -0.000000000003
 22       0.000038857878
 23       0.179935341799
 24       0.000023428190
 25       0.000065689237
 26       0.304180675832
 27       0.000039605352
 28       0.000098559368
 29       0.456389127606
 30       0.000059423412
 31       0.000051591300
 32       0.238898759397
 33       0.000031105424
 34       0.000001682408
 35       0.007790513630
 36       0.000001014339
 37       0.000000951695
 38       0.004406989204
 39       0.000000573826
 40      -0.000000664621
 41      -0.003077704677
 42      -0.000000400765
 43       0.000000421578
 44       0.001952345224
 45       0.000000254267
 46      -0.000000276209
 47      -0.001279333927
 48      -0.000000166685