[Molden Format]
[Title]
 Molden file created by orca_2mkl for BaseName=/data01/Nikolayandreadi/heavy/cations/Ac_3+

[Atoms] AU
Ac   1  89          0.0415890928         1.5388172189        -3.6027401976 
[GTO]
  1 0
s   9 1.0 
 55109808.7412440032     14257.7713661335
 25049913.0642019995     -5151.0918968321
 11386324.1200920008      8141.6734319397
  5175601.8727690000       367.7957557878
  2352546.3058039998      3850.3989281956
  1069339.2299110000      1838.0599913906
   486063.2863230000      2498.2579619160
   220937.8574200000      1918.4911854425
   100426.2988270000      1976.3677811030
s   1 1.0 
    45648.3176490000      2225.7617489804
s   1 1.0 
    20749.2352950000      1232.1445599454
s   1 1.0 
     9431.4705890000       682.0946659463
s   1 1.0 
     4287.0320860000       377.5962240397
s   1 1.0 
     1948.6509480000       209.0309681559
s   1 1.0 
      885.7504310000       115.7160555982
s   1 1.0 
      402.6138320000        64.0584772366
s   1 1.0 
      183.0062870000        35.4617039283
s   1 1.0 
       83.1846760000        19.6310075135
s   1 1.0 
       37.8112160000        10.8673980720
s   1 1.0 
       17.1869170000         6.0160103808
s   1 1.0 
        7.8122350000         3.3303629495
s   1 1.0 
        3.5510160000         1.8436333860
s   1 1.0 
        1.6140980000         1.0206045891
s   1 1.0 
        0.7336810000         0.5649897208
s   1 1.0 
        0.3334910000         0.3127686249
s   1 1.0 
        0.1515870000         0.1731436469
s   1 1.0 
        0.0689030000         0.0958492438
s   1 1.0 
        0.0313200000         0.0530611193
s   1 1.0 
        0.0142360000         0.0293731874
p   8 1.0 
   782789.9000960001    105400.6380222760
   326162.4583730000      9339.8703413204
   135901.0243220000     31114.7166186033
    56625.4268010000     15807.4263964350
    23593.9278340000     15422.4005191925
     9830.8032640000     12674.9472511059
     4096.1680270000     12080.1456614186
     1706.7366780000     11164.2062033065
p   1 1.0 
      711.1402820000      5234.6082754400
p   1 1.0 
      296.3084510000      1752.3471056201
p   1 1.0 
      123.4618550000       586.6189460208
p   1 1.0 
       51.4424390000       196.3776356850
p   1 1.0 
       21.4343500000        65.7397404951
p   1 1.0 
        8.9309790000        22.0071560566
p   1 1.0 
        3.7212410000         7.3671554630
p   1 1.0 
        1.5505170000         2.4662423617
p   1 1.0 
        0.6460490000         0.8256042333
p   1 1.0 
        0.2691870000         0.2763806863
p   1 1.0 
        0.1121610000         0.0925214496
p   1 1.0 
        0.0467340000         0.0309728579
d   7 1.0 
    37896.8365590000     43506.3623126937
    15158.7346230000     21857.0905485274
     6063.4938490000     24630.8084267633
     2425.3975400000     23119.8187386178
      970.1590160000     25018.7518608141
      388.0636060000     22853.9144711695
      155.2254430000     15499.7964819019
d   1 1.0 
       62.0901770000      3915.2559196064
d   1 1.0 
       24.8360710000       787.7077997530
d   1 1.0 
        9.9344280000       158.4784080703
d   1 1.0 
        3.9737710000        31.8841649022
d   1 1.0 
        1.5895090000         6.4147586096
d   1 1.0 
        0.6358030000         1.2905789757
d   1 1.0 
        0.2543210000         0.2596503863
d   1 1.0 
        0.1017290000         0.0522394313
d   1 1.0 
        0.0406910000         0.0105097460
f   6 1.0 
     3860.7881580000     45311.1110738893
     1484.9185220000     38972.8076748077
      571.1225090000     44376.6887792609
      219.6625030000     42822.5096425147
       84.4855780000     30269.0683434645
       32.4944530000     11761.6594792960
f   1 1.0 
       12.4978670000      1674.4834181961
f   1 1.0 
        4.8068720000       195.0701571938
f   1 1.0 
        1.8487970000        22.7248403933
f   1 1.0 
        0.7110760000         2.6473485595
f   1 1.0 
        0.2734910000         0.3084053601
f   1 1.0 
        0.1051890000         0.0359280225

[5D]
[7F]
[9G]
[MO]
 Sym=     1a
 Ene= -3.93527683218436E+03
 Spin= Alpha
 Occup= 2.000000
  1      -0.078450253491
  2      -0.061820843216
  3      -0.107263350605
  4      -0.173848742464
  5      -0.263579374967
  6      -0.308463273024
  7      -0.199489009162
  8      -0.034065472661
  9      -0.000805401279
 10       0.000549932059
 11      -0.000405610649
 12       0.000306216899
 13      -0.000219243088
 14       0.000147387200
 15      -0.000097473390
 16       0.000064158947
 17      -0.000041386479
 18       0.000025596361
 19      -0.000014464051
 20       0.000006624282
 21      -0.000001784416
 22       0.000000000000
 23       0.000000000000
 24       0.000000000000
 25      -0.000000000000
 26      -0.000000000000
 27      -0.000000000000
 28       0.000000000000
 29       0.000000000000
 30      -0.000000000000
 31       0.000000000000
 32      -0.000000000000
 33       0.000000000000
 34      -0.000000000000
 35       0.000000000000
 36      -0.000000000000
 37       0.000000000000
 38      -0.000000000000
 39       0.000000000000
 40      -0.000000000000
 41       0.000000000000
 42      -0.000000000000
 43       0.000000000000
 44      -0.000000000001
 45       0.000000000000
 46      -0.000000000000
 47       0.000000000001
 48      -0.000000000000
 49       0.000000000000
 50      -0.000000000001
 51       0.000000000000
 52      -0.000000000000
 53       0.000000000000
 54      -0.000000000000
 55       0.000000000000
 56      -0.000000000000
 57       0.000000000000
 58      -0.000000000000
 59       0.000000000000
 60      -0.000000000000
 61      -0.000000000000
 62       0.000000000000
 63      -0.000000000000
 64      -0.000000000000
 65       0.000000000000
 66       0.000000000000
 67      -0.000000000000
 68       0.000000000000
 69       0.000000000000
 70       0.000000000000
 71       0.000000000000
 72      -0.000000000000
 73      -0.000000000000
 74      -0.000000000000
 75      -0.000000000000
 76      -0.000000000000
 77      -0.000000000000
 78       0.000000000000
 79       0.000000000000
 80       0.000000000000
 81       0.000000000000
 82       0.000000000000
 83      -0.000000000000
 84      -0.000000000001
 85      -0.000000000000
 86      -0.000000000000
 87      -0.000000000000
 88       0.000000000000
 89       0.000000000001
 90       0.000000000000
 91      -0.000000000000
 92       0.000000000000
 93      -0.000000000000
 94      -0.000000000000
 95      -0.000000000000
 96       0.000000000000
 97      -0.000000000000
 98       0.000000000000
 99       0.000000000000
100       0.000000000000
101      -0.000000000000
102       0.000000000000
103      -0.000000000000
104      -0.000000000000
105      -0.000000000000
106       0.000000000000
107      -0.000000000000
108       0.000000000000
109       0.000000000000
110       0.000000000000
111      -0.000000000000
112       0.000000000000
113      -0.000000000000
114      -0.000000000000
115      -0.000000000000
116      -0.000000000000
117      -0.000000000001
118       0.000000000000
119      -0.000000000000
120       0.000000000000
121      -0.000000000000
122       0.000000000000
123       0.000000000000
124       0.000000000000
125      -0.000000000000
126       0.000000000000
127      -0.000000000000
128       0.000000000000
129      -0.000000000000
130      -0.000000000000
131      -0.000000000000
132       0.000000000000
133      -0.000000000000
134       0.000000000000
135      -0.000000000000
136       0.000000000000
137       0.000000000000
138      -0.000000000000
139      -0.000000000000
140      -0.000000000000
141      -0.000000000000
142      -0.000000000000
143      -0.000000000000
144      -0.000000000000
145      -0.000000000000
146      -0.000000000000
147      -0.000000000000
148       0.000000000000
149      -0.000000000000
150      -0.000000000000
151       0.000000000000
152       0.000000000000
153       0.000000000000
154       0.000000000000
155      -0.000000000000
156       0.000000000000
157      -0.000000000000
158      -0.000000000000
159      -0.000000000000
 Sym=     1a
 Ene= -7.34430579290752E+02
 Spin= Alpha
 Occup= 2.000000
  1      -0.032585830016
  2      -0.027686209863
  3      -0.047061532304
  4      -0.083446582452
  5      -0.136668168535
  6      -0.181020268460
  7      -0.086605751990
  8       0.351893627908
  9       0.621415056578
 10       0.184146775612
 11      -0.002403226046
 12       0.002458453574
 13      -0.001415180286
 14       0.000789646407
 15      -0.000469853508
 16       0.000300541859
 17      -0.000191568658
 18       0.000117474013
 19      -0.000066205196
 20       0.000030282741
 21      -0.000008152857
 22      -0.000000000000
 23       0.000000000000
 24       0.000000000000
 25      -0.000000000000
 26       0.000000000000
 27      -0.000000000000
 28      -0.000000000000
 29       0.000000000000
 30       0.000000000001
 31      -0.000000000001
 32       0.000000000000
 33      -0.000000000002
 34       0.000000000001
 35      -0.000000000001
 36       0.000000000001
 37      -0.000000000001
 38       0.000000000002
 39      -0.000000000001
 40       0.000000000001
 41      -0.000000000005
 42       0.000000000001
 43      -0.000000000003
 44       0.000000000017
 45      -0.000000000003
 46       0.000000000002
 47      -0.000000000017
 48       0.000000000002
 49      -0.000000000001
 50       0.000000000011
 51      -0.000000000002
 52       0.000000000001
 53      -0.000000000006
 54       0.000000000001
 55      -0.000000000000
 56       0.000000000003
 57      -0.000000000000
 58       0.000000000000
 59      -0.000000000001
 60       0.000000000000
 61      -0.000000000001
 62      -0.000000000001
 63      -0.000000000001
 64       0.000000000000
 65      -0.000000000002
 66       0.000000000001
 67      -0.000000000000
 68      -0.000000000002
 69      -0.000000000001
 70      -0.000000000001
 71      -0.000000000001
 72       0.000000000000
 73       0.000000000002
 74       0.000000000006
 75       0.000000000001
 76       0.000000000001
 77      -0.000000000000
 78      -0.000000000000
 79      -0.000000000008
 80      -0.000000000000
 81      -0.000000000002
 82       0.000000000000
 83      -0.000000000000
 84       0.000000000019
 85       0.000000000001
 86       0.000000000002
 87      -0.000000000000
 88       0.000000000000
 89      -0.000000000013
 90      -0.000000000000
 91      -0.000000000001
 92       0.000000000000
 93      -0.000000000001
 94       0.000000000007
 95      -0.000000000000
 96       0.000000000001
 97      -0.000000000000
 98       0.000000000001
 99      -0.000000000003
100       0.000000000001
101      -0.000000000001
102       0.000000000000
103      -0.000000000000
104       0.000000000002
105      -0.000000000001
106       0.000000000000
107      -0.000000000000
108       0.000000000000
109      -0.000000000001
110       0.000000000000
111       0.000000000004
112      -0.000000000003
113       0.000000000003
114       0.000000000000
115       0.000000000001
116       0.000000000002
117       0.000000000000
118      -0.000000000002
119       0.000000000001
120      -0.000000000001
121      -0.000000000000
122      -0.000000000001
123      -0.000000000001
124       0.000000000000
125       0.000000000001
126      -0.000000000000
127       0.000000000001
128       0.000000000000
129       0.000000000001
130       0.000000000000
131       0.000000000000
132      -0.000000000001
133       0.000000000000
134      -0.000000000000
135      -0.000000000000
136      -0.000000000000
137      -0.000000000000
138      -0.000000000000
139       0.000000000000
140       0.000000000000
141       0.000000000000
142      -0.000000000000
143       0.000000000000
144       0.000000000000
145       0.000000000000
146      -0.000000000000
147      -0.000000000000
148       0.000000000000
149      -0.000000000000
150      -0.000000000000
151      -0.000000000000
152       0.000000000000
153       0.000000000000
154       0.000000000000
155      -0.000000000000
156      -0.000000000000
157       0.000000000000
158      -0.000000000000
159       0.000000000001
 Sym=     1a
 Ene= -6.22346879565848E+02
 Spin= Alpha
 Occup= 2.000000
  1      -0.000000000000
  2      -0.000000000000
  3       0.000000000000
  4      -0.000000000000
  5       0.000000000000
  6      -0.000000000001
  7       0.000000000000
  8       0.000000000000
  9      -0.000000000000
 10       0.000000000004
 11      -0.000000000009
 12       0.000000000011
 13      -0.000000000008
 14       0.000000000006
 15      -0.000000000004
 16       0.000000000002
 17      -0.000000000000
 18      -0.000000000000
 19       0.000000000000
 20      -0.000000000000
 21       0.000000000000
 22       0.000357688362
 23      -0.091306188083
 24       0.146885339267
 25       0.000621463473
 26      -0.158639382473
 27       0.255205041462
 28       0.000948494691
 29      -0.242119799609
 30       0.389500970909
 31       0.000505993023
 32      -0.129163537801
 33       0.207786903270
 34       0.000018277921
 35      -0.004665757622
 36       0.007505859186
 37       0.000009078396
 38      -0.002317418932
 39       0.003728059112
 40      -0.000006308474
 41       0.001610347955
 42      -0.002590585709
 43       0.000003869016
 44      -0.000987633785
 45       0.001588818096
 46      -0.000002326226
 47       0.000593809672
 48      -0.000955268610
 49       0.000001379425
 50      -0.000352122380
 51       0.000566463420
 52      -0.000000771276
 53       0.000196881948
 54      -0.000316726310
 55       0.000000372874
 56      -0.000095182955
 57       0.000153121942
 58      -0.000000116728
 59       0.000029796970
 60      -0.000047934738
 61       0.000000000001
 62       0.000000000000
 63      -0.000000000000
 64      -0.000000000000
 65       0.000000000002
 66      -0.000000000002
 67      -0.000000000000
 68      -0.000000000000
 69       0.000000000000
 70      -0.000000000002
 71       0.000000000001
 72       0.000000000000
 73       0.000000000000
 74       0.000000000001
 75       0.000000000001
 76      -0.000000000001
 77       0.000000000000
 78      -0.000000000000
 79      -0.000000000001
 80      -0.000000000001
 81       0.000000000000
 82      -0.000000000000
 83       0.000000000000
 84       0.000000000002
 85       0.000000000000
 86      -0.000000000000
 87       0.000000000000
 88       0.000000000000
 89      -0.000000000002
 90      -0.000000000000
 91       0.000000000000
 92      -0.000000000000
 93      -0.000000000000
 94       0.000000000001
 95       0.000000000000
 96      -0.000000000000
 97       0.000000000000
 98       0.000000000000
 99      -0.000000000000
100      -0.000000000000
101       0.000000000000
102      -0.000000000000
103       0.000000000000
104       0.000000000001
105       0.000000000000
106      -0.000000000000
107       0.000000000000
108       0.000000000000
109      -0.000000000000
110      -0.000000000000
111       0.000000000001
112      -0.000000000001
113       0.000000000001
114       0.000000000000
115      -0.000000000001
116       0.000000000001
117       0.000000000002
118       0.000000000000
119       0.000000000002
120      -0.000000000002
121      -0.000000000001
122       0.000000000002
123      -0.000000000001
124      -0.000000000001
125      -0.000000000000
126      -0.000000000001
127       0.000000000002
128       0.000000000001
129      -0.000000000001
130       0.000000000002
131       0.000000000000
132       0.000000000000
133       0.000000000001
134      -0.000000000001
135      -0.000000000000
136       0.000000000001
137      -0.000000000001
138      -0.000000000000
139      -0.000000000000
140      -0.000000000000
141       0.000000000000
142       0.000000000000
143      -0.000000000000
144       0.000000000001
145       0.000000000000
146       0.000000000000
147       0.000000000000
148      -0.000000000000
149       0.000000000000
150       0.000000000000
151      -0.000000000000
152      -0.000000000000
153       0.000000000000
154       0.000000000000
155       0.000000000000
156      -0.000000000000
157      -0.000000000000
158       0.000000000000
159      -0.000000000000
 Sym=     1a
 Ene= -6.22346879565302E+02
 Spin= Alpha
 Occup= 2.000000
  1      -0.000000000000
  2      -0.000000000000
  3      -0.000000000000
  4      -0.000000000000
  5      -0.000000000000
  6      -0.000000000000
  7       0.000000000000
  8       0.000000000000
  9       0.000000000001
 10       0.000000000000
 11      -0.000000000000
 12       0.000000000000
 13      -0.000000000001
 14       0.000000000001
 15      -0.000000000000
 16       0.000000000001
 17      -0.000000000001
 18       0.000000000001
 19      -0.000000000000
 20       0.000000000000
 21       0.000000000000
 22       0.168349215494
 23      -0.033474900909
 24      -0.021218469925
 25       0.292497322981
 26      -0.058160763471
 27      -0.036865901825
 28       0.446417479204
 29      -0.088766560846
 30      -0.056265755848
 31       0.238150126691
 32      -0.047354256263
 33      -0.030016066817
 34       0.008602665945
 35      -0.001710571618
 36      -0.001084266464
 37       0.004272828248
 38      -0.000849617873
 39      -0.000538540541
 40      -0.002969139563
 41       0.000590389759
 42       0.000374225672
 43       0.001820986911
 44      -0.000362088749
 45      -0.000229514320
 46      -0.001094858903
 47       0.000217703977
 48       0.000137994290
 49       0.000649238875
 50      -0.000129095982
 51      -0.000081829045
 52      -0.000363008493
 53       0.000072181349
 54       0.000045753019
 55       0.000175497151
 56      -0.000034896210
 57      -0.000022119385
 58      -0.000054939284
 59       0.000010924239
 60       0.000006924461
 61      -0.000000000001
 62       0.000000000000
 63      -0.000000000000
 64      -0.000000000000
 65      -0.000000000001
 66      -0.000000000001
 67       0.000000000000
 68       0.000000000000
 69       0.000000000000
 70       0.000000000001
 71       0.000000000001
 72      -0.000000000001
 73      -0.000000000000
 74      -0.000000000001
 75      -0.000000000001
 76      -0.000000000000
 77       0.000000000002
 78      -0.000000000001
 79       0.000000000001
 80       0.000000000001
 81       0.000000000000
 82      -0.000000000002
 83       0.000000000002
 84      -0.000000000002
 85       0.000000000000
 86      -0.000000000000
 87       0.000000000001
 88      -0.000000000001
 89       0.000000000002
 90      -0.000000000000
 91       0.000000000000
 92      -0.000000000001
 93       0.000000000001
 94      -0.000000000002
 95       0.000000000000
 96      -0.000000000000
 97       0.000000000000
 98      -0.000000000000
 99       0.000000000002
100      -0.000000000000
101       0.000000000000
102      -0.000000000000
103       0.000000000000
104      -0.000000000002
105       0.000000000000
106      -0.000000000000
107       0.000000000000
108      -0.000000000000
109       0.000000000001
110      -0.000000000000
111      -0.000000000003
112      -0.000000000001
113       0.000000000001
114       0.000000000000
115       0.000000000002
116      -0.000000000001
117      -0.000000000000
118       0.000000000003
119       0.000000000004
120      -0.000000000006
121      -0.000000000006
122       0.000000000007
123       0.000000000002
124      -0.000000000000
125      -0.000000000002
126      -0.000000000003
127       0.000000000004
128       0.000000000004
129      -0.000000000005
130      -0.000000000001
131       0.000000000000
132       0.000000000001
133       0.000000000002
134      -0.000000000002
135      -0.000000000002
136       0.000000000003
137       0.000000000001
138      -0.000000000000
139      -0.000000000001
140      -0.000000000001
141       0.000000000001
142       0.000000000001
143      -0.000000000002
144      -0.000000000000
145       0.000000000000
146       0.000000000000
147       0.000000000000
148      -0.000000000000
149      -0.000000000001
150       0.000000000001
151       0.000000000000
152      -0.000000000000
153      -0.000000000000
154      -0.000000000001
155       0.000000000000
156       0.000000000001
157      -0.000000000000
158      -0.000000000000
159      -0.000000000000
 Sym=     1a
 Ene= -6.22346879564946E+02
 Spin= Alpha
 Occup= 2.000000
  1      -0.000000000000
  2      -0.000000000000
  3       0.000000000000
  4      -0.000000000000
  5       0.000000000000
  6      -0.000000000000
  7       0.000000000001
  8      -0.000000000001
  9       0.000000000001
 10      -0.000000000002
 11       0.000000000003
 12      -0.000000000003
 13       0.000000000002
 14      -0.000000000002
 15       0.000000000001
 16      -0.000000000001
 17       0.000000000000
 18      -0.000000000000
 19       0.000000000000
 20      -0.000000000000
 21      -0.000000000000
 22      -0.039631610058
 23      -0.143020494480
 24      -0.088807232010
 25      -0.068857700427
 26      -0.248490090341
 27      -0.154297586407
 28      -0.105092520966
 29      -0.379252427358
 30      -0.235493230736
 31      -0.056063658680
 32      -0.202319617470
 33      -0.125628465165
 34      -0.002025180225
 35      -0.007308365134
 36      -0.004538060652
 37      -0.001005879727
 38      -0.003629966480
 39      -0.002253993571
 40       0.000698974337
 41       0.002522422259
 42       0.001566274395
 43      -0.000428684166
 44      -0.001547013140
 45      -0.000960603269
 46       0.000257744123
 47       0.000930133599
 48       0.000577557716
 49      -0.000152839334
 50      -0.000551558644
 51      -0.000342485156
 52       0.000085456954
 53       0.000308392612
 54       0.000191493495
 55      -0.000041314328
 56      -0.000149093000
 57      -0.000092577898
 58       0.000012933427
 59       0.000046673480
 60       0.000028981459
 61      -0.000000000001
 62       0.000000000000
 63       0.000000000000
 64      -0.000000000000
 65      -0.000000000001
 66       0.000000000002
 67      -0.000000000000
 68       0.000000000000
 69       0.000000000000
 70       0.000000000001
 71      -0.000000000001
 72       0.000000000000
 73      -0.000000000000
 74      -0.000000000001
 75      -0.000000000000
 76       0.000000000001
 77      -0.000000000001
 78       0.000000000000
 79       0.000000000001
 80       0.000000000000
 81      -0.000000000000
 82       0.000000000001
 83      -0.000000000001
 84      -0.000000000001
 85      -0.000000000000
 86       0.000000000000
 87      -0.000000000000
 88       0.000000000000
 89       0.000000000001
 90       0.000000000000
 91      -0.000000000000
 92       0.000000000000
 93      -0.000000000000
 94      -0.000000000000
 95      -0.000000000000
 96       0.000000000000
 97      -0.000000000000
 98       0.000000000000
 99      -0.000000000000
100       0.000000000000
101      -0.000000000000
102       0.000000000000
103      -0.000000000000
104       0.000000000000
105      -0.000000000000
106       0.000000000000
107      -0.000000000000
108       0.000000000000
109      -0.000000000000
110       0.000000000000
111       0.000000000000
112       0.000000000001
113      -0.000000000001
114       0.000000000001
115      -0.000000000001
116       0.000000000000
117      -0.000000000000
118      -0.000000000001
119      -0.000000000002
120       0.000000000003
121       0.000000000002
122      -0.000000000003
123      -0.000000000000
124      -0.000000000000
125       0.000000000001
126       0.000000000001
127      -0.000000000002
128      -0.000000000001
129       0.000000000002
130      -0.000000000001
131       0.000000000000
132      -0.000000000000
133      -0.000000000001
134       0.000000000001
135       0.000000000001
136      -0.000000000001
137       0.000000000000
138       0.000000000000
139       0.000000000000
140       0.000000000000
141      -0.000000000000
142      -0.000000000000
143       0.000000000001
144       0.000000000000
145      -0.000000000000
146      -0.000000000000
147      -0.000000000000
148      -0.000000000000
149       0.000000000000
150      -0.000000000000
151      -0.000000000000
152       0.000000000000
153       0.000000000000
154       0.000000000000
155      -0.000000000000
156      -0.000000000000
157       0.000000000000
158       0.000000000000
159      -0.000000000000
 Sym=     1a
 Ene= -1.86834656510451E+02
 Spin= Alpha
 Occup= 2.000000
  1      -0.015894316675
  2      -0.013703953744
  3      -0.023083648804
  4      -0.042045138099
  5      -0.068718527750
  6      -0.095984730840
  7      -0.035874168344
  8       0.276546257202
  9       0.697112354332
 10      -0.145349622380
 11      -1.000604029770
 12      -0.163749220128
 13      -0.016721209024
 14       0.012806954475
 15      -0.009214699187
 16       0.006391304937
 17      -0.004220477716
 18       0.002636333268
 19      -0.001497709907
 20       0.000687627364
 21      -0.000185440825
 22      -0.000000000000
 23       0.000000000000
 24      -0.000000000001
 25      -0.000000000000
 26       0.000000000000
 27      -0.000000000002
 28      -0.000000000001
 29       0.000000000000
 30      -0.000000000004
 31       0.000000000003
 32       0.000000000000
 33       0.000000000003
 34      -0.000000000003
 35      -0.000000000002
 36       0.000000000008
 37       0.000000000002
 38      -0.000000000001
 39       0.000000000004
 40      -0.000000000001
 41       0.000000000002
 42      -0.000000000001
 43       0.000000000002
 44      -0.000000000011
 45       0.000000000002
 46      -0.000000000001
 47       0.000000000011
 48      -0.000000000001
 49       0.000000000001
 50      -0.000000000007
 51       0.000000000001
 52      -0.000000000000
 53       0.000000000004
 54      -0.000000000000
 55       0.000000000000
 56      -0.000000000002
 57       0.000000000000
 58      -0.000000000000
 59       0.000000000001
 60      -0.000000000000
 61      -0.000000000005
 62       0.000000000020
 63       0.000000000003
 64      -0.000000000013
 65      -0.000000000001
 66      -0.000000000005
 67       0.000000000002
 68      -0.000000000003
 69      -0.000000000008
 70      -0.000000000008
 71      -0.000000000008
 72       0.000000000011
 73      -0.000000000005
 74      -0.000000000046
 75      -0.000000000012
 76       0.000000000001
 77      -0.000000000002
 78      -0.000000000001
 79       0.000000000034
 80       0.000000000002
 81      -0.000000000000
 82       0.000000000001
 83       0.000000000002
 84      -0.000000000028
 85      -0.000000000001
 86      -0.000000000001
 87       0.000000000000
 88      -0.000000000002
 89       0.000000000017
 90      -0.000000000001
 91      -0.000000000001
 92       0.000000000001
 93      -0.000000000000
 94      -0.000000000009
 95      -0.000000000002
 96       0.000000000003
 97      -0.000000000002
 98       0.000000000002
 99       0.000000000004
100       0.000000000003
101      -0.000000000001
102       0.000000000000
103      -0.000000000000
104      -0.000000000002
105      -0.000000000001
106      -0.000000000000
107       0.000000000000
108      -0.000000000000
109       0.000000000001
110      -0.000000000001
111      -0.000000000010
112      -0.000000000017
113       0.000000000008
114      -0.000000000001
115      -0.000000000021
116      -0.000000000002
117       0.000000000003
118       0.000000000006
119       0.000000000012
120      -0.000000000005
121       0.000000000002
122       0.000000000012
123       0.000000000001
124      -0.000000000002
125      -0.000000000004
126      -0.000000000008
127       0.000000000004
128      -0.000000000001
129      -0.000000000008
130      -0.000000000000
131       0.000000000002
132       0.000000000002
133       0.000000000004
134      -0.000000000002
135       0.000000000001
136       0.000000000004
137       0.000000000000
138      -0.000000000001
139      -0.000000000001
140      -0.000000000002
141       0.000000000001
142      -0.000000000000
143      -0.000000000002
144      -0.000000000000
145      -0.000000000000
146       0.000000000000
147       0.000000000001
148      -0.000000000000
149       0.000000000000
150       0.000000000001
151      -0.000000000000
152       0.000000000002
153      -0.000000000000
154      -0.000000000000
155      -0.000000000000
156      -0.000000000000
157      -0.000000000000
158      -0.000000000000
159      -0.000000000006
 Sym=     1a
 Ene= -1.54789950060842E+02
 Spin= Alpha
 Occup= 2.000000
  1      -0.000000000000
  2      -0.000000000000
  3      -0.000000000000
  4      -0.000000000001
  5      -0.000000000001
  6      -0.000000000002
  7      -0.000000000000
  8       0.000000000004
  9       0.000000000010
 10      -0.000000000002
 11      -0.000000000025
 12       0.000000000019
 13      -0.000000000015
 14       0.000000000012
 15      -0.000000000010
 16       0.000000000006
 17      -0.000000000003
 18       0.000000000002
 19      -0.000000000002
 20       0.000000000001
 21      -0.000000000001
 22      -0.000037550105
 23       0.032625935951
 24       0.090276036716
 25      -0.000070115560
 26       0.060920887945
 27       0.168568231272
 28      -0.000109634645
 29       0.095257599592
 30       0.263577988110
 31       0.000042180956
 32      -0.036649515328
 33      -0.101409289725
 34       0.000289560690
 35      -0.251588868657
 36      -0.696146954315
 37       0.000104488020
 38      -0.090785881016
 39      -0.251204732955
 40      -0.000003074278
 41       0.002671129127
 42       0.007391020189
 43       0.000002688319
 44      -0.002335784391
 45      -0.006463120575
 46      -0.000001549292
 47       0.001346125202
 48       0.003724731418
 49       0.000000876768
 50      -0.000761792502
 51      -0.002107881547
 52      -0.000000485452
 53       0.000421791813
 54       0.001167098885
 55       0.000000234130
 56      -0.000203426872
 57      -0.000562882609
 58      -0.000000073242
 59       0.000063637293
 60       0.000176084532
 61       0.000000000008
 62       0.000000000000
 63       0.000000000001
 64      -0.000000000002