[Molden Format]
[Title]
 Molden file created by orca_2mkl for BaseName=/data01/Nikolayandreadi/heavy/CC4/HCl

[Atoms] AU
Cl   1  17          3.0797887257         0.0000000000         0.0000000000 
H    2   1          0.6694279240         0.0000000000         0.0000000000 
[GTO]
  1 0
s   7 1.0 
    69507.9909450000         4.1142286333
    10426.1568800000         4.2286655222
     2373.2334061000         5.8493829067
      671.5642007100         8.3358677251
      218.4199979000        10.0089622684
       77.5722497100         8.2783277553
       28.8888152800         2.9822029766
s   1 1.0 
      127.1052718500        26.9794296956
s   1 1.0 
       39.3395829600        11.1952141621
s   1 1.0 
        7.6740680000         3.2860890225
s   1 1.0 
        3.8745627600        -1.9682357562
s   1 1.0 
        1.8385832600         1.1253110111
s   1 1.0 
        0.5022905800        -0.4252324193
s   1 1.0 
        0.1796272300         0.1966478587
p   6 1.0 
      666.5042328400        13.1758105786
      157.6424169000        16.0544655669
       50.2625209800        17.4320614645
       18.5360781100        14.3789566857
        7.2940532800         7.6571902731
        2.9433249000         1.9874071930
p   1 1.0 
        1.0404970800         1.4979287975
p   1 1.0 
        0.3845641500        -0.4316692201
p   1 1.0 
        0.1306964300         0.1120133392
d   2 1.0 
        4.6100000000         7.5524217504
        1.0110000000         2.6539585854
d   1 1.0 
        0.3390000000         0.4293579962
f   1 1.0 
        0.7060000000         2.6050175686

  2 0
s   3 1.0 
       34.0613410000         0.2556300129
        5.1235746000         0.4613599287
        1.1646626000         0.6811215012
s   1 1.0 
        0.3272304100         0.3083545312
s   1 1.0 
        0.1030724100         0.1296483265
p   1 1.0 
        0.8000000000         1.0784563492

[5D]
[7F]
[9G]
[MO]
 Sym=     1a
 Ene= -1.05213290711412E+02
 Spin= Alpha
 Occup= 2.000000
  1      -0.939476189801
  2      -0.013320117890
  3      -0.030225947793
  4      -0.051294112465
  5      -0.023893207187
  6      -0.009084641098
  7      -0.002388063886
  8      -0.000804068655
  9       0.000043056691
 10       0.000000000000
 11       0.000000000000
 12       0.000086525324
 13       0.000000000000
 14      -0.000000000000
 15       0.000358175000
 16       0.000000000000
 17      -0.000000000000
 18       0.000152541113
 19       0.000000000000
 20      -0.000000000000
 21      -0.000010918155
 22      -0.000000000000
 23       0.000000000000
 24       0.000018910799
 25       0.000000000000
 26      -0.000072736067
 27      -0.000000000000
 28      -0.000000000000
 29       0.000125982564
 30      -0.000000000000
 31      -0.000000000000
 32       0.000058258027
 33      -0.000000000000
 34      -0.000000000000
 35      -0.000000000000
 36       0.000075210789
 37      -0.000000000000
 38      -0.000015827816
 39      -0.000359562155
 40       0.000321065197
 41      -0.000239240727
 42      -0.000000000000
 43       0.000000000000
 Sym=     1a
 Ene= -1.06378023588795E+01
 Spin= Alpha
 Occup= 2.000000
  1       0.277062238014
  2       0.031021823945
  3       0.119393839602
  4      -0.284304934176
  5       0.554851513513
  6      -0.284335812714
  7       0.014932519790
  8       0.002343029315
  9       0.003425202755
 10       0.000000000000
 11      -0.000000000000
 12       0.000782952000
 13       0.000000000001
 14       0.000000000000
 15      -0.000382748483
 16       0.000000000001
 17       0.000000000000
 18      -0.000481002503
 19       0.000000000001
 20      -0.000000000000
 21       0.000377325694
 22       0.000000000000
 23       0.000000000000
 24      -0.000653547272
 25       0.000000000000
 26      -0.000125862780
 27       0.000000000000
 28      -0.000000000000
 29       0.000218000730
 30      -0.000000000000
 31       0.000000000000
 32      -0.000140180779
 33       0.000000000000
 34      -0.000000000000
 35      -0.000000000000
 36      -0.000180972608
 37      -0.000000000000
 38      -0.000186341834
 39       0.000255410975
 40      -0.000812289389
 41       0.000336151558
 42      -0.000000000000
 43      -0.000000000000
 Sym=     1a
 Ene= -8.04026365749147E+00
 Spin= Alpha
 Occup= 2.000000
  1       0.001205459369
  2       0.000149628038
  3       0.000534749649
  4      -0.001456426597
  5       0.003117604962
  6      -0.000107227535
  7      -0.000392421677
  8       0.000161337245
  9      -0.971527320035
 10      -0.000000001398
 11      -0.000000000027
 12      -0.061163584059
 13      -0.000000000087
 14      -0.000000000002
 15      -0.006015831771
 16      -0.000000000014
 17      -0.000000000000
 18      -0.001943525121
 19      -0.000000000006
 20      -0.000000000000
 21      -0.000404878164
 22       0.000000000000
 23       0.000000000000
 24       0.000701269551
 25      -0.000000000000
 26       0.000275815684
 27      -0.000000000000
 28      -0.000000000000
 29      -0.000477726779
 30       0.000000000001
 31       0.000000000000
 32       0.000083037222
 33       0.000000000000
 34      -0.000000000000
 35      -0.000000000000
 36       0.000107200592
 37       0.000000000000
 38       0.000518018728
 39       0.000978579580
 40      -0.000845065938
 41       0.000172368126
 42      -0.000000000000
 43      -0.000000000000
 Sym=     1a
 Ene= -8.03812495067636E+00
 Spin= Alpha
 Occup= 2.000000
  1       0.000000000002
  2       0.000000000000
  3       0.000000000001
  4      -0.000000000002
  5       0.000000000005
  6       0.000000000000
  7      -0.000000000001
  8       0.000000000000
  9      -0.000000001395
 10       0.970913835174
 11       0.058332384593
 12      -0.000000000088
 13       0.058411682473
 14       0.003509366752
 15      -0.000000000009
 16       0.004750526489
 17       0.000285411052
 18      -0.000000000003
 19       0.001517858770
 20       0.000091192779
 21      -0.000000000001
 22      -0.000041514473
 23      -0.000000000000
 24       0.000000000001
 25      -0.000690987736
 26       0.000000000000
 27       0.000023698461
 28       0.000000000000
 29      -0.000000000001
 30       0.000394449449
 31      -0.000003887761
 32       0.000000000000
 33      -0.000026417761
 34       0.000005019077
 35       0.000000000000
 36       0.000000000000
 37      -0.000102315548
 38       0.000000000000
 39       0.000000000002
 40      -0.000000000002
 41       0.000000000000
 42       0.000138589371
 43       0.000008326382
 Sym=     1a
 Ene= -8.03812495066430E+00
 Spin= Alpha
 Occup= 2.000000
  1      -0.000000000000
  2      -0.000000000000
  3      -0.000000000000
  4       0.000000000000
  5      -0.000000000000
  6      -0.000000000000
  7       0.000000000000
  8       0.000000000000
  9       0.000000000057
 10      -0.058332384593
 11       0.970913835174
 12       0.000000000004
 13      -0.003509366751
 14       0.058411682474
 15       0.000000000000
 16      -0.000285411050
 17       0.004750526489
 18       0.000000000000
 19      -0.000091192778
 20       0.001517858770
 21       0.000000000000
 22      -0.000690987735
 23      -0.000000000000
 24      -0.000000000000
 25       0.000041514473
 26      -0.000000000000
 27       0.000394449449
 28       0.000000000000
 29       0.000000000000
 30      -0.000023698461
 31      -0.000064710034
 32      -0.000000000000
 33       0.000001587172
 34       0.000083540295
 35       0.000000000000
 36      -0.000000000000
 37       0.000006147089
 38      -0.000000000000
 39      -0.000000000000
 40       0.000000000000
 41      -0.000000000000
 42      -0.000008326382
 43       0.000138589371
 Sym=     1a
 Ene= -1.12085416995578E+00
 Spin= Alpha
 Occup= 2.000000
  1       0.078937818941
  2       0.009814578597
  3       0.038133079036
  4      -0.094452121728
  5       0.315660209889
  6      -0.172607978986
  7      -0.665641229625
  8       0.437021022520
  9       0.031756800925
 10      -0.000000000001
 11      -0.000000000000
 12      -0.022312787953
 13      -0.000000000001
 14       0.000000000000
 15       0.053706307849
 16      -0.000000000008
 17      -0.000000000000
 18      -0.008043596494
 19      -0.000000000003
 20       0.000000000000
 21      -0.008208976629
 22      -0.000000000000
 23       0.000000000000
 24       0.014218364599
 25      -0.000000000001
 26      -0.006152831979
 27       0.000000000000
 28      -0.000000000000
 29       0.010657017598
 30       0.000000000002
 31       0.000000000000
 32       0.004380033059
 33      -0.000000000000
 34      -0.000000000000
 35      -0.000000000000
 36       0.005654598364
 37      -0.000000000000
 38       0.085797818553
 39       0.093236326117
 40       0.009212024791
 41       0.018888710275
 42       0.000000000000
 43      -0.000000000000
 Sym=     1a
 Ene= -6.24226732242875E-01
 Spin= Alpha
 Occup= 2.000000
  1       0.023213366503
  2       0.002956176911
  3       0.011160143569
  4      -0.025954431282
  5       0.104256103498
  6      -0.040008700884
  7      -0.198424600145
  8       0.234344240699
  9      -0.226959990643
 10      -0.000000000003
 11      -0.000000000000
 12       0.200564778070
 13       0.000000000002
 14       0.000000000000
 15      -0.423605873080
 16      -0.000000000008
 17      -0.000000000000
 18       0.190758107905
 19       0.000000000003
 20       0.000000000000
 21       0.022985479401
 22       0.000000000000
 23      -0.000000000000
 24      -0.039812018159
 25      -0.000000000000
 26       0.022435171694
 27      -0.000000000000
 28       0.000000000000
 29      -0.038858857251
 30       0.000000000000
 31       0.000000000000
 32      -0.008009809906
 33       0.000000000000
 34      -0.000000000000
 35       0.000000000000
 36      -0.010340620124
 37       0.000000000000
 38      -0.153818712455
 39      -0.261548352794
 40      -0.054840771497
 41      -0.023286709597
 42       0.000000000000
 43       0.000000000000
 Sym=     1a
 Ene= -4.74365298284214E-01
 Spin= Alpha
 Occup= 2.000000
  1      -0.000000000001
  2      -0.000000000000
  3      -0.000000000000
  4       0.000000000001
  5      -0.000000000005
  6       0.000000000003
  7       0.000000000014
  8      -0.000000000005
  9       0.000000000001
 10      -0.256328328565
 11      -0.103035626683
 12       0.000000000004
 13       0.236124489092
 14       0.094914342263
 15       0.000000000002
 16      -0.508576914575
 17      -0.204431329939
 18      -0.000000000001
 19       0.339605863774
 20       0.136510479329
 21       0.000000000002
 22      -0.001846583677
 23       0.000000000000
 24      -0.000000000003
 25      -0.004593864496
 26      -0.000000000002
 27      -0.006622852236
 28      -0.000000000000
 29       0.000000000003
 30      -0.016476093742
 31      -0.001841846472
 32       0.000000000001
 33      -0.001870626102
 34       0.002377813571
 35       0.000000000000
 36       0.000000000001
 37      -0.007244903740
 38       0.000000000006
 39      -0.000000000004
 40       0.000000000019
 41      -0.000000000000
 42       0.016284364266
 43       0.006545783241
 Sym=     1a
 Ene= -4.74365298280891E-01
 Spin= Alpha
 Occup= 2.000000
  1       0.000000000000
  2       0.000000000000
  3       0.000000000000
  4      -0.000000000000
  5       0.000000000002
  6      -0.000000000001
  7      -0.000000000006
  8       0.000000000002
  9      -0.000000000000
 10       0.103035626682
 11      -0.256328328566
 12      -0.000000000002
 13      -0.094914342262
 14       0.236124489092
 15      -0.000000000001
 16       0.204431329935
 17      -0.508576914579
 18       0.000000000000
 19      -0.136510479335
 20       0.339605863769
 21      -0.000000000001
 22      -0.004593864496
 23       0.000000000000
 24       0.000000000001
 25       0.001846583676
 26       0.000000000001
 27      -0.016476093743
 28      -0.000000000000
 29      -0.000000000001
 30       0.006622852237
 31      -0.004582079450
 32      -0.000000000000
 33       0.000751930673
 34       0.005915439133
 35      -0.000000000000
 36      -0.000000000000
 37       0.002912214976
 38      -0.000000000002
 39       0.000000000002
 40      -0.000000000008
 41       0.000000000000
 42      -0.006545783241
 43       0.016284364266
 Sym=     1a
 Ene= 1.27368591378497E-01
 Spin= Alpha
 Occup= 0.000000
  1       0.022938987125
  2       0.003206826468
  3       0.010360857572
  4      -0.014624952264
  5       0.142031506425
  6       0.017403586882
  7      -0.037333018309
  8       1.001258775140
  9       0.114693740567
 10      -0.000000000002
 11       0.000000000000
 12      -0.122989054466
 13       0.000000000010
 14      -0.000000000000
 15       0.164867093244
 16       0.000000000024
 17      -0.000000000000
 18      -0.806744791679
 19       0.000000000037
 20      -0.000000000000
 21       0.018917575157
 22      -0.000000000000
 23       0.000000000000
 24      -0.032766201327
 25       0.000000000002
 26       0.014208102277
 27       0.000000000000
 28       0.000000000000
 29      -0.024609155023
 30      -0.000000000006
 31       0.000000000000
 32      -0.000902163767
 33      -0.000000000000
 34      -0.000000000000
 35      -0.000000000000
 36      -0.001164688415
 37      -0.000000000000
 38      -0.082439095995
 39      -0.060771810405
 40      -1.652731652299
 41       0.016891256745
 42       0.000000000000
 43      -0.000000000000
 Sym=     1a
 Ene= 3.24825027353034E-01
 Spin= Alpha
 Occup= 0.000000
  1       0.005069040506
  2       0.000663595800
  3       0.002406344080
  4      -0.004948885700
  5       0.026245293558
  6      -0.002730932701
  7       0.039905828648
  8       0.192282719102
  9       0.040720132763
 10      -0.000000000000
 11      -0.000000000000
 12      -0.035228866106
 13      -0.000000000003
 14      -0.000000000000
 15       0.080353070267
 16      -0.000000000013
 17      -0.000000000000
 18      -0.701288754623
 19      -0.000000000016
 20      -0.000000000000
 21       0.070426407871
 22       0.000000000000
 23      -0.000000000000
 24      -0.121982116628
 25      -0.000000000000
 26       0.064361846604
 27       0.000000000000
 28      -0.000000000000
 29      -0.111477988388
 30       0.000000000003
 31       0.000000000000
 32       0.011836206811
 33       0.000000000000
 34      -0.000000000000
 35       0.000000000000
 36       0.015280477287
 37       0.000000000000
 38      -0.104445870413
 39      -1.270017279238
 40       0.864349958008
 41      -0.047488681952
 42      -0.000000000000
 43      -0.000000000000
 Sym=     1a
 Ene= 4.95461494870585E-01
 Spin= Alpha
 Occup= 0.000000
  1      -0.000000000002
  2      -0.000000000000
  3      -0.000000000001
  4       0.000000000004
  5      -0.000000000005
  6       0.000000000010
  7       0.000000000032
  8      -0.000000000052
  9       0.000000000030
 10       0.179194871521
 11       0.038412652097
 12      -0.000000000018
 13      -0.053383729367
 14      -0.011443467141
 15       0.000000000177
 16       1.120969368012
 17       0.240293742670
 18       0.000000000258
 19       1.343836464579
 20       0.288068080029
 21      -0.000000000002
 22       0.000667279162
 23      -0.000000000000
 24       0.000000000002
 25       0.003112854672
 26       0.000000000013
 27      -0.005762594830
 28       0.000000000000
 29      -0.000000000024
 30      -0.026882482289
 31       0.000254482027
 32      -0.000000000002
 33       0.000484655085
 34      -0.000328534884
 35      -0.000000000000
 36      -0.000000000002
 37       0.001877061074
 38      -0.000000000015
 39      -0.000000000039
 40       0.000000000178
 41       0.000000000003
 42      -0.005846765789
 43      -0.001253327052
 Sym=     1a
 Ene= 4.95461494875477E-01
 Spin= Alpha
 Occup= 0.000000
  1      -0.000000000000
  2      -0.000000000000
  3      -0.000000000000
  4       0.000000000001
  5      -0.000000000001
  6       0.000000000002
  7       0.000000000007
  8      -0.000000000011
  9       0.000000000007
 10       0.038412652098
 11      -0.179194871520
 12      -0.000000000004
 13      -0.011443467141
 14       0.053383729365
 15       0.000000000039
 16       0.240293742673
 17      -1.120969368011
 18       0.000000000056
 19       0.288068080028
 20      -1.343836464580
 21      -0.000000000000
 22      -0.003112854670
 23      -0.000000000001
 24       0.000000000001
 25       0.000667279161
 26       0.000000000003
 27       0.026882482300
 28      -0.000000000001
 29      -0.000000000005
 30      -0.005762594824
 31      -0.001187157660
 32      -0.000000000000
 33       0.000103891853
 34       0.001532613949
 35      -0.000000000000
 36      -0.000000000000
 37       0.000402371415
 38      -0.000000000003
 39      -0.000000000008
 40       0.000000000039
 41       0.000000000001
 42      -0.001253327053
 43       0.005846765787
 Sym=     1a
 Ene= 5.13888673807261E-01
 Spin= Alpha
 Occup= 0.000000
  1       0.017990623816
  2       0.001815569222
  3       0.009959630717
  4      -0.039859295249
  5       0.020311563774
  6      -0.134602533496
  7      -0.462980435298
  8      -0.054237680217
  9      -0.192809427467
 10       0.000000000031
 11      -0.000000000000
 12       0.062833367228
 13      -0.000000000013
 14       0.000000000000
 15      -1.176219299450
 16       0.000000000181
 17      -0.000000000001
 18      -1.523012217529
 19       0.000000000217
 20      -0.000000000001
 21      -0.013467235973
 22      -0.000000000000
 23      -0.000000000001
 24       0.023325936943
 25       0.000000000001
 26      -0.086124325656
 27      -0.000000000000
 28      -0.000000000001
 29       0.149171707805
 30       0.000000000005
 31      -0.000000000000
 32       0.002295062097
 33       0.000000000000
 34      -0.000000000000
 35       0.000000000000
 36       0.002962912427
 37       0.000000000001
 38       0.052982532429
 39       0.191275371785
 40      -0.744232920848
 41      -0.015421957914
 42      -0.000000000002
 43       0.000000000000
 Sym=     1a
 Ene= 5.94160211311404E-01
 Spin= Alpha
 Occup= 0.000000
  1      -0.000000000001
  2      -0.000000000000
  3      -0.000000000000
  4       0.000000000001
  5       0.000000000000
  6       0.000000000006
  7       0.000000000020
  8       0.000000000019
  9       0.000000000001
 10      -0.007577999579
 11      -0.000315383213
 12       0.000000000003
 13       0.013530231064
 14       0.000563104777
 15       0.000000000013
 16       0.009816096272
 17       0.000408528926
 18       0.000000000010
 19       0.057574953875
 20       0.002396169840
 21       0.000000000002
 22       0.008755189340
 23      -0.000000000000
 24      -0.000000000002
 25       0.210368904177
 26       0.000000000004
 27       0.034316428975
 28      -0.000000000000
 29      -0.000000000000
 30       0.824552077370
 31       0.000395500885
 32       0.000000000001
 33       0.003879607914
 34      -0.000510589447
 35       0.000000000000
 36       0.000000000000
 37       0.015025656838
 38       0.000000000002
 39       0.000000000001
 40      -0.000000000008
 41      -0.000000000000
 42      -0.091521128610
 43      -0.003808950818
 Sym=     1a
 Ene= 5.94160211314751E-01
 Spin= Alpha
 Occup= 0.000000
  1      -0.000000000000
  2      -0.000000000000
  3      -0.000000000000
  4       0.000000000000
  5       0.000000000000
  6       0.000000000000
  7       0.000000000001
  8       0.000000000001
  9       0.000000000000
 10      -0.000315383214
 11       0.007577999577
 12       0.000000000000
 13       0.000563104776
 14      -0.013530231063
 15       0.000000000001
 16       0.000408528922
 17      -0.009816096287
 18       0.000000000001
 19       0.002396169836
 20      -0.057574953893
 21       0.000000000001
 22      -0.210368904177
 23      -0.000000000001
 24       0.000000000000
 25       0.008755189341
 26       0.000000000003
 27      -0.824552077369
 28      -0.000000000002
 29       0.000000000002
 30       0.034316428974
 31      -0.009503059790
 32      -0.000000000000
 33       0.000161462560
 34       0.012268397436
 35       0.000000000000
 36       0.000000000000
 37       0.000625341807
 38       0.000000000000
 39      -0.000000000000
 40      -0.000000000000
 41      -0.000000000000
 42      -0.003808950818
 43       0.091521128611
 Sym=     1a
 Ene= 6.34440305532955E-01
 Spin= Alpha
 Occup= 0.000000
  1      -0.000000000000
  2      -0.000000000000
  3      -0.000000000000
  4       0.000000000000
  5       0.000000000000
  6       0.000000000001
  7       0.000000000002
  8       0.000000000001
  9      -0.000000000000
 10      -0.000000000000
 11       0.000000000000
 12       0.000000000000
 13       0.000000000000
 14      -0.000000000000
 15      -0.000000000002
 16      -0.000000000001
 17       0.000000000000
 18      -0.000000000001
 19      -0.000000000001
 20       0.000000000000
 21      -0.179571292341
 22      -0.000000000001
 23      -0.065006181178
 24      -0.103675533972
 25       0.000000000001
 26      -0.710449513465
 27      -0.000000000002
 28      -0.257188157350
 29      -0.410178217846
 30       0.000000000003
 31      -0.000000000000
 32       0.005991592208
 33       0.000000000000
 34      -0.000000000000
 35       0.002376022867
 36      -0.004641067368
 37       0.000000000000
 38       0.000000000000
 39       0.000000000003
 40      -0.000000000003
 41       0.000000000000
 42      -0.000000000000
 43       0.000000000000
 Sym=     1a
 Ene= 6.34440305533212E-01
 Spin= Alpha
 Occup= 0.000000
  1       0.000000000000
  2       0.000000000000
  3       0.000000000000
  4      -0.000000000000
  5      -0.000000000000
  6      -0.000000000000
  7      -0.000000000001
  8      -0.000000000001
  9      -0.000000000000
 10      -0.000000000000
 11      -0.000000000000
 12      -0.000000000000
 13       0.000000000000
 14      -0.000000000000
 15      -0.000000000002
 16      -0.000000000000
 17      -0.000000000002
 18      -0.000000000002
 19      -0.000000000000
 20      -0.000000000003
 21      -0.056297004303
 22      -0.000000000001
 23       0.207351067943
 24      -0.032503090589
 25       0.000000000000
 26      -0.222731477818
 27      -0.000000000003
 28       0.820356435690
 29      -0.128594078674
 30       0.000000000001
 31       0.000000000000
 32       0.001878411009
 33       0.000000000000
 34      -0.000000000000
 35      -0.007578831275
 36      -0.001455010911
 37      -0.000000000000
 38       0.000000000000
 39      -0.000000000001
 40      -0.000000000000
 41       0.000000000000
 42      -0.000000000000
 43       0.000000000000
 Sym=     1a
 Ene= 8.19804137131982E-01
 Spin= Alpha
 Occup= 0.000000
  1      -0.059292984548
  2      -0.005313678074
  3      -0.034593951476
  4       0.159790336741
  5       0.029327201489
  6       0.621759144741
  7       2.242133885388
  8       2.358888830479
  9      -0.089128533766
 10       0.000000000007
 11       0.000000000000
 12       0.087688893296
 13      -0.000000000009
 14      -0.000000000000
 15      -0.384799449928
 16       0.000000000017
 17      -0.000000000000
 18      -0.680853916302
 19       0.000000000020
 20      -0.000000000000
 21       0.052577339261
 22       0.000000000000
 23      -0.000000000000
 24      -0.091066622925
 25      -0.000000000005
 26       0.175661110138
 27       0.000000000000
 28       0.000000000001
 29      -0.304253967671
 30      -0.000000000004
 31      -0.000000000000
 32       0.017463652897
 33      -0.000000000000
 34      -0.000000000000
 35       0.000000000000
 36       0.022545478945
 37       0.000000000000
 38       0.055993925944
 39       0.655721800591
 40      -1.375567431826
 41      -0.107217311312
 42       0.000000000001
 43       0.000000000000
 Sym=     1a
 Ene= 9.39757844593699E-01
 Spin= Alpha
 Occup= 0.000000
  1       0.030072021567
  2       0.002523942346
  3       0.018015131961
  4      -0.088675231148
  5      -0.041518497466
  6      -0.374263631111
  7      -1.598881846237
  8      -2.415676300045
  9      -0.006294512180
 10       0.000000000000
 11       0.000000000000
 12      -0.065449789087
 13      -0.000000000001
 14       0.000000000000
 15      -0.320183880970
 16      -0.000000000000
 17       0.000000000000
 18       1.178042604886
 19       0.000000000000
 20       0.000000000000
 21       0.098119781894
 22      -0.000000000000
 23      -0.000000000001
 24      -0.169948447467
 25      -0.000000000000
 26       0.605866772702
 27       0.000000000000
 28       0.000000000001
 29      -1.049392032937
 30      -0.000000000000
 31       0.000000000000
 32      -0.044952012332
 33      -0.000000000000
 34      -0.000000000000
 35       0.000000000000
 36      -0.058032798380
 37      -0.000000000000
 38      -0.050295318798
 39       2.080140330079
 40       0.208475772453
 41       0.172715813540
 42       0.000000000000
 43       0.000000000000
 Sym=     1a
 Ene= 1.74788544307157E+00
 Spin= Alpha
 Occup= 0.000000
  1       0.000000000000
  2      -0.000000000000
  3       0.000000000000
  4      -0.000000000000
  5      -0.000000000000
  6      -0.000000000001
  7      -0.000000000001
  8      -0.000000000000
  9      -0.000000000000
 10      -0.048543902717
 11      -0.000777691973
 12       0.000000000001
 13       0.097151382334
 14       0.001556402585
 15       0.000000000002
 16       0.010632662273
 17       0.000170339348
 18       0.000000000000
 19       0.167880049633
 20       0.002689503087
 21       0.000000000001
 22      -0.004057597270
 23      -0.000000000000
 24      -0.000000000001
 25      -0.253277132970
 26      -0.000000000001
 27      -0.003927187951
 28       0.000000000000
 29       0.000000000001
 30      -0.245136921887
 31       0.002997657545
 32      -0.000000000000
 33       0.076389458925
 34      -0.003869959250
 35      -0.000000000000
 36       0.000000000000
 37       0.295855102241
 38       0.000000000001
 39      -0.000000000002
 40       0.000000000001
 41      -0.000000000000
 42      -0.894445388034
 43      -0.014329359786
 Sym=     1a
 Ene= 1.74788544307524E+00
 Spin= Alpha
 Occup= 0.000000
  1      -0.000000000000
  2      -0.000000000000
  3      -0.000000000000
  4       0.000000000000
  5      -0.000000000000
  6       0.000000000000
  7       0.000000000000
  8      -0.000000000000
  9      -0.000000000000
 10       0.000777691974
 11      -0.048543902717
 12      -0.000000000000
 13      -0.001556402586
 14       0.097151382335
 15      -0.000000000000
 16      -0.000170339348
 17       0.010632662273
 18       0.000000000000
 19      -0.002689503087
 20       0.167880049634
 21      -0.000000000001
 22      -0.253277132972
 23       0.000000000003
 24      -0.000000000000
 25       0.004057597269
 26       0.000000000001
 27      -0.245136921887
 28      -0.000000000002
 29       0.000000000000
 30       0.003927187951
 31       0.187115196092
 32       0.000000000000
 33      -0.001223788568
 34      -0.241564679429
 35       0.000000000000
 36      -0.000000000000
 37      -0.004739712744
 38       0.000000000000
 39       0.000000000000
 40      -0.000000000000
 41       0.000000000000
 42       0.014329359787
 43      -0.894445388034
 Sym=     1a
 Ene= 1.98643036200671E+00
 Spin= Alpha
 Occup= 0.000000
  1      -0.004222597313
  2      -0.000553398264
  3      -0.002057189101
  4       0.003984559772
  5      -0.027721450536
  6      -0.015514857643
  7      -0.220912640345
  8      -0.778316802013
  9      -0.059434023028
 10       0.000000000001
 11      -0.000000000000
 12       0.029506846501
 13      -0.000000000002
 14       0.000000000000
 15      -0.357191457405
 16      -0.000000000001
 17       0.000000000000
 18       0.297524784649
 19      -0.000000000000
 20       0.000000000000
 21      -0.364423497810
 22      -0.000000000000
 23       0.000000000004
 24       0.631200013680
 25      -0.000000000011
 26       0.511147529319
 27       0.000000000000
 28      -0.000000000003
 29      -0.885333490944
 30       0.000000000008
 31      -0.000000000000
 32       0.225784896368
 33      -0.000000000000
 34       0.000000000000
 35      -0.000000000000
 36       0.291487047820
 37      -0.000000000002
 38       0.560430267130
 39       0.081927794547
 40       0.461741483383
 41       0.517687804232
 42       0.000000000001
 43       0.000000000000
 Sym=     1a
 Ene= 2.08027830267345E+00
 Spin= Alpha
 Occup= 0.000000
  1       0.000000000000
  2      -0.000000000000
  3       0.000000000000
  4      -0.000000000002
  5      -0.000000000004
  6      -0.000000000008
  7      -0.000000000004
  8       0.000000000036
  9      -0.000000000007
 10       0.007776714263
 11       0.001429255740
 12       0.000000000033
 13      -0.011484664959
 14      -0.002110727324
 15       0.000000000063
 16       0.013656059530
 17       0.002509800524
 18      -0.000000000015
 19      -0.021748312856
 20      -0.003997048103
 21       0.000000000023
 22      -0.210177843240
 23      -0.000000000042
 24      -0.000000000044
 25      -1.143597317261
 26      -0.000000000034
 27       0.165843579305
 28       0.000000000030
 29       0.000000000061
 30       0.902370437594
 31      -0.022173999009
 32       0.000000000011
 33      -0.049255484493
 34       0.028626509627
 35       0.000000000002
 36       0.000000000012
 37      -0.190765671159
 38       0.000000000039
 39      -0.000000000128
 40       0.000000000028
 41      -0.000000000019
 42       0.181175345571
 43       0.033297597683
 Sym=     1a
 Ene= 2.08027830267828E+00
 Spin= Alpha
 Occup= 0.000000
  1       0.000000000000
  2      -0.000000000000
  3       0.000000000000
  4      -0.000000000000
  5      -0.000000000001
  6      -0.000000000001
  7      -0.000000000001
  8       0.000000000006
  9      -0.000000000001
 10       0.001429255738
 11      -0.007776714264
 12       0.000000000006
 13      -0.002110727321
 14       0.011484664961
 15       0.000000000012
 16       0.002509800524
 17      -0.013656059528
 18      -0.000000000003
 19      -0.003997048103
 20       0.021748312856
 21      -0.000000000006