[Molden Format]
[Title]
 Molden file created by orca_2mkl for BaseName=/home/nikolayandreadi_2125/_scratch/cctask/PuF3

[Atoms] AU
Pu   1  94          0.7115820449         1.0399389682        -1.7623283569 
F    2   9          3.5617350302        -0.3342169640         0.4983547966 
F    3   9         -1.4816662315         3.2522829272         0.5558856190 
F    4   9         -1.4682170506        -2.0863596971        -2.5336616524 
[GTO]
  1 0
s   9 1.0 
 61522220.6225290000     17063.6754636881
 27964645.7375129983     -6251.6280422765
 12711202.6079610009      9671.6986576994
  5777819.3672550004       289.2210734849
  2626281.5305699999      4464.1627617163
  1193764.3320770001      2006.5541689788
   542620.1509440000      2788.3025657130
   246645.5231560000      2062.8458110195
   112111.6014350000      2113.6106705618
s   1 1.0 
    50959.8188340000      2417.3024864446
s   1 1.0 
    23163.5540150000      1338.1783156871
s   1 1.0 
    10528.8881890000       740.7931835960
s   1 1.0 
     4785.8582680000       410.0907438407
s   1 1.0 
     2175.3901220000       227.0193920667
s   1 1.0 
      988.8136920000       125.6741468865
s   1 1.0 
      449.4607690000        69.5711104117
s   1 1.0 
      204.3003500000        38.5134057612
s   1 1.0 
       92.8637950000        21.3203786259
s   1 1.0 
       42.2108160000        11.8026058245
s   1 1.0 
       19.1867350000         6.5337257345
s   1 1.0 
        8.7212430000         3.6169614730
s   1 1.0 
        3.9642010000         2.0022893726
s   1 1.0 
        1.8019100000         1.1084341915
s   1 1.0 
        0.8190500000         0.6136106705
s   1 1.0 
        0.3722950000         0.3396843160
s   1 1.0 
        0.1692250000         0.1880435685
s   1 1.0 
        0.0769210000         0.1040983350
s   1 1.0 
        0.0349640000         0.0576269887
s   1 1.0 
        0.0158930000         0.0319017498
p   8 1.0 
   879013.3813660000    139189.6694195126
   366255.5755690000     11873.5310695809
   152606.4898210000     40255.8773916045
    63586.0374250000     19887.9699123185
    26494.1822610000     19138.0697118639
    11039.2426090000     15284.2547358037
     4599.6844200000     14199.0747202623
     1916.5351750000     12759.1191870144
p   1 1.0 
      798.5563230000      6050.9286073116
p   1 1.0 
      332.7318010000      2025.6199998139
p   1 1.0 
      138.6382510000       678.1002843303
p   1 1.0 
       57.7659380000       227.0021001283
p   1 1.0 
       24.0691410000        75.9916416591
p   1 1.0 
       10.0288090000        25.4391026723
p   1 1.0 
        4.1786700000         8.5160397883
p   1 1.0 
        1.7411130000         2.8508461829
p   1 1.0 
        0.7254640000         0.9543549283
p   1 1.0 
        0.3022760000         0.3194807322
p   1 1.0 
        0.1259490000         0.1069506658
p   1 1.0 
        0.0524790000         0.0358032150
d   7 1.0 
    43223.8765000000     60764.0080375267
    17289.5506000000     29755.0800020834
     6915.8202400000     32871.2311092175
     2766.3280960000     30065.6700485816
     1106.5312380000     31905.5201083940
      442.6124950000     28787.6778141197
      177.0449980000     19499.0030796932
d   1 1.0 
       70.8179990000      4928.5761768021
d   1 1.0 
       28.3272000000       991.5770557751
d   1 1.0 
       11.3308800000       199.4947420861
d   1 1.0 
        4.5323520000        40.1362172392
d   1 1.0 
        1.8129410000         8.0749809665
d   1 1.0 
        0.7251760000         1.6245985936
d   1 1.0 
        0.2900710000         0.3268531162
d   1 1.0 
        0.1160280000         0.0657589689
d   1 1.0 
        0.0464110000         0.0132299043
f   6 1.0 
     4758.8680260000     68069.5976130275
     1830.3338560000     59148.9500505355
      703.9745600000     64844.9511990799
      270.7594460000     63667.3327460647
      104.1382490000     46445.9881466115
       40.0531730000     19036.1414891793
f   1 1.0 
       15.4050660000      2680.6684110836
f   1 1.0 
        5.9250260000       312.2864675901
f   1 1.0 
        2.2788560000        36.3800311270
f   1 1.0 
        0.8764830000         4.2381170555
f   1 1.0 
        0.3371090000         0.4937230016
f   1 1.0 
        0.1296570000         0.0575163091

  2 0
s   6 1.0 
    35479.1004410000         1.9229128581
     5318.4728983000         2.2734773358
     1210.4810975000         3.4747482552
      342.8551814000         5.2879612972
      112.0194318100         7.1666332516
       40.7147402500         7.7556346254
s   1 1.0 
       16.0396781100         5.7122450312
s   1 1.0 
        6.5038186700         2.9025947842
s   1 1.0 
        1.5440477500         0.9872011154
s   1 1.0 
        0.6122345300        -0.4932856223
s   1 1.0 
        0.2402798000         0.2445952611
p   4 1.0 
       80.2339004800         4.2755032106
       18.5940107400         4.7314752302
        5.6867902700         4.0864798013
        1.9511006300         2.2989954518
p   1 1.0 
        0.6697021100         0.8635593126
p   1 1.0 
        0.2165130000         0.2105208234
d   1 1.0 
        3.1070000000        20.7284714039
d   1 1.0 
        0.8550000000         2.1672588463
f   1 1.0 
        1.9170000000        24.6547062912

  3 0
s   6 1.0 
    35479.1004410000         1.9229128581
     5318.4728983000         2.2734773358
     1210.4810975000         3.4747482552
      342.8551814000         5.2879612972
      112.0194318100         7.1666332516
       40.7147402500         7.7556346254
s   1 1.0 
       16.0396781100         5.7122450312
s   1 1.0 
        6.5038186700         2.9025947842
s   1 1.0 
        1.5440477500         0.9872011154
s   1 1.0 
        0.6122345300        -0.4932856223
s   1 1.0 
        0.2402798000         0.2445952611
p   4 1.0 
       80.2339004800         4.2755032106
       18.5940107400         4.7314752302
        5.6867902700         4.0864798013
        1.9511006300         2.2989954518
p   1 1.0 
        0.6697021100         0.8635593126
p   1 1.0 
        0.2165130000         0.2105208234
d   1 1.0 
        3.1070000000        20.7284714039
d   1 1.0 
        0.8550000000         2.1672588463
f   1 1.0 
        1.9170000000        24.6547062912

  4 0
s   6 1.0 
    35479.1004410000         1.9229128581
     5318.4728983000         2.2734773358
     1210.4810975000         3.4747482552
      342.8551814000         5.2879612972
      112.0194318100         7.1666332516
       40.7147402500         7.7556346254
s   1 1.0 
       16.0396781100         5.7122450312
s   1 1.0 
        6.5038186700         2.9025947842
s   1 1.0 
        1.5440477500         0.9872011154
s   1 1.0 
        0.6122345300        -0.4932856223
s   1 1.0 
        0.2402798000         0.2445952611
p   4 1.0 
       80.2339004800         4.2755032106
       18.5940107400         4.7314752302
        5.6867902700         4.0864798013
        1.9511006300         2.2989954518
p   1 1.0 
        0.6697021100         0.8635593126
p   1 1.0 
        0.2165130000         0.2105208234
d   1 1.0 
        3.1070000000        20.7284714039
d   1 1.0 
        0.8550000000         2.1672588463
f   1 1.0 
        1.9170000000        24.6547062912

[5D]
[9G]
[MO]
 Sym=     1a
 Ene= -4.48853143091402E+03
 Spin= Alpha
 Occup= 1.000000
  1       0.089707943636
  2       0.067509904364
  3       0.114800038766
  4       0.180028581974
  5       0.264902206556
  6       0.299424198051
  7       0.188404246726
  8       0.030966082291
  9       0.000917982569
 10      -0.000657014459
 11       0.000477383366
 12      -0.000350711826
 13       0.000248548035
 14      -0.000167633225
 15       0.000111513368
 16      -0.000074142549
 17       0.000048590003
 18      -0.000029760457
 19       0.000015163651
 20      -0.000006748519
 21       0.000001825219
 22       0.000000058484
 23       0.000000089160
 24      -0.000000146979
 25      -0.000000012064
 26      -0.000000013763
 27       0.000000026221
 28      -0.000000001306
 29      -0.000000002079
 30       0.000000003545
 31      -0.000000000792
 32      -0.000000000843
 33       0.000000001563
 34      -0.000000000031
 35       0.000000000046
 36       0.000000000162
 37       0.000000003667
 38       0.000000004834
 39      -0.000000008872
 40      -0.000000005702
 41      -0.000000007085
 42       0.000000013354
 43       0.000000012498
 44       0.000000015913
 45      -0.000000029367
 46      -0.000000026951
 47      -0.000000035224
 48       0.000000063913
 49       0.000000056598
 50       0.000000075796
 51      -0.000000135622
 52      -0.000000126179
 53      -0.000000174618
 54       0.000000307364
 55       0.000000253144
 56       0.000000354887
 57      -0.000000621478
 58      -0.000000075145
 59      -0.000000111053
 60       0.000000186584
 61      -0.000000020527
 62       0.000000028833
 63       0.000000021996
 64       0.000000029293
 65       0.000000001006
 66       0.000000022651
 67      -0.000000027781
 68      -0.000000025852
 69      -0.000000023144
 70       0.000000003149
 71      -0.000000016342
 72       0.000000020568
 73       0.000000018263
 74       0.000000017075
 75      -0.000000002265
 76       0.000000015336
 77      -0.000000016731
 78      -0.000000018255
 79      -0.000000010411
 80       0.000000004833
 81      -0.000000017917
 82       0.000000017232
 83       0.000000022295
 84       0.000000006908
 85      -0.000000008226
 86       0.000000024757
 87      -0.000000022802
 88      -0.000000031102
 89      -0.000000006657
 90       0.000000012793
 91      -0.000000032678
 92       0.000000029787
 93       0.000000040916
 94       0.000000006946
 95      -0.000000017476
 96       0.000000019558
 97      -0.000000019222
 98      -0.000000023183
 99      -0.000000004305
100       0.000000009379
101       0.000000134072
102      -0.000000109310
103      -0.000000179341
104      -0.000000021496
105       0.000000085106
106      -0.000000049184
107       0.000000041724
108       0.000000063797
109       0.000000007869
110      -0.000000028739
111      -0.000000001840
112       0.000000001698
113       0.000000002042
114       0.000000002516
115      -0.000000006505
116      -0.000000004183
117       0.000000001533
118       0.000000005651
119      -0.000000003555
120      -0.000000006442
121      -0.000000006940
122       0.000000020255
123       0.000000013348
124      -0.000000003628
125      -0.000000011017
126       0.000000007046
127       0.000000012333
128       0.000000013604
129      -0.000000039472
130      -0.000000026119
131       0.000000007240
132       0.000000019872
133      -0.000000013258
134      -0.000000021928
135      -0.000000024827
136       0.000000071131
137       0.000000047132
138      -0.000000013539
139      -0.000000034135
140       0.000000023068
141       0.000000037583
142       0.000000042836
143      -0.000000122280
144      -0.000000081093
145       0.000000023537
146       0.000000046351
147      -0.000000032392
148      -0.000000051778
149      -0.000000058550
150       0.000000166336
151       0.000000109784
152      -0.000000032279
153       0.000000039621
154      -0.000000015281
155      -0.000000032810
156      -0.000000046185
157       0.000000137588
158       0.000000097717
159      -0.000000025471
160      -0.000000013199
161       0.000000057484
162      -0.000000098018
163       0.000000140287
164       0.000000065549
165       0.000000369346
166      -0.000000031202
167       0.000000015167
168      -0.000000025181
169      -0.000000068203
170       0.000000030088
171      -0.000000048364
172      -0.000000180399
173       0.000000109248
174      -0.000000185453
175      -0.000000001850
176       0.000000052694
177      -0.000000024112
178       0.000000028387
179      -0.000000032402
180       0.000000005627
181      -0.000000097529
182       0.000000043325
183      -0.000000055139
184       0.000000060236
185      -0.000000042929
186       0.000000033377
187      -0.000000015231
188       0.000000052653
189      -0.000000065006
190      -0.000000012124
191       0.000000046656
192      -0.000000013541
193       0.000000059031
194      -0.000000100905
195       0.000000147690
196       0.000000077583
197       0.000000394437
198       0.000000024980
199      -0.000000024958
200      -0.000000026550
201       0.000000047719
202      -0.000000052093
203      -0.000000048025
204       0.000000164883
205      -0.000000136031
206      -0.000000192756
207       0.000000000003
208      -0.000000041106
209       0.000000043337
210      -0.000000002387
211      -0.000000042334
212       0.000000002258
213       0.000000076207
214      -0.000000082155
215       0.000000006291
216       0.000000081356
217      -0.000000041689
218      -0.000000028786
219       0.000000030177
220      -0.000000001405
221      -0.000000084547
222      -0.000000034471
223      -0.000000031610
224      -0.000000013213
225       0.000000057544
226      -0.000000098129
227       0.000000140492
228       0.000000064950
229       0.000000365237
230       0.000000024329
231       0.000000034703
232       0.000000008249
233       0.000000048290
234       0.000000070013
235       0.000000021961
236       0.000000161293
237       0.000000228253
238       0.000000020841
239      -0.000000030279
240       0.000000015765
241       0.000000022917
242      -0.000000020596
243       0.000000055879
244       0.000000055040
245      -0.000000031117
246      -0.000000045412
247       0.000000038151
248      -0.000000103563
249       0.000000031557
250       0.000000030212
251       0.000000043305
252       0.000000015109
253      -0.000000040880
254      -0.000000080072
255       0.000000021087
 Sym=     1a
 Ene= -8.54219592239113E+02
 Spin= Alpha
 Occup= 1.000000
  1      -0.038294565843
  2      -0.031157294464
  3      -0.051669171853
  4      -0.088896591596
  5      -0.140008450158
  6      -0.175205791261
  7      -0.061930038478
  8       0.380738769188
  9       0.603129685528
 10       0.160409068086
 11      -0.001799983972
 12       0.001354749350
 13      -0.000659447800
 14       0.000300163551
 15      -0.000147354114
 16       0.000088322370
 17      -0.000055522256
 18       0.000032899468
 19      -0.000016581423
 20       0.000007352026
 21      -0.000001984147
 22       0.000000071816
 23       0.000000204744
 24      -0.000000269237
 25       0.000000227434
 26       0.000000503172
 27      -0.000000718520
 28       0.000000220840
 29       0.000000594011
 30      -0.000000787004
 31       0.000000639465
 32       0.000001131167
 33      -0.000001764316
 34       0.000000238509
 35       0.000000366397
 36      -0.000000610685
 37      -0.000000086251
 38      -0.000000124583
 39       0.000000213934
 40       0.000000029104
 41       0.000000040226
 42      -0.000000071404
 43      -0.000000026899
 44      -0.000000035724
 45       0.000000064340
 46       0.000000057189
 47       0.000000078339
 48      -0.000000137995
 49      -0.000000084390
 50      -0.000000115661
 51       0.000000204260
 52       0.000000148679
 53       0.000000205934
 54      -0.000000362241
 55      -0.000000281994
 56      -0.000000393318
 57       0.000000689515
 58       0.000000081503
 59       0.000000119869
 60      -0.000000201635
 61      -0.000001802792
 62       0.000002216744
 63       0.000002089010
 64       0.000001978843
 65      -0.000000196989
 66      -0.000000350237
 67       0.000000394030
 68       0.000000411096
 69       0.000000262991
 70      -0.000000088298
 71       0.000000205711
 72      -0.000000268872
 73      -0.000000221085
 74      -0.000000211780
 75       0.000000026971
 76      -0.000000095089
 77       0.000000113851
 78       0.000000106088
 79       0.000000073136
 80      -0.000000023330
 81       0.000000046084
 82      -0.000000046802
 83      -0.000000055344
 84      -0.000000018934
 85       0.000000018816
 86      -0.000000033210
 87       0.000000037909
 88       0.000000037966
 89       0.000000021847
 90      -0.000000010483
 91       0.000000041005
 92      -0.000000040850
 93      -0.000000049586
 94      -0.000000015508
 95       0.000000018020
 96      -0.000000015790
 97       0.000000018281
 98       0.000000016987
 99       0.000000007765
100      -0.000000004603
101      -0.000000149723
102       0.000000120874
103       0.000000200983
104       0.000000022219
105      -0.000000095763
106       0.000000053184
107      -0.000000044528
108      -0.000000069328
109      -0.000000007841
110       0.000000031424
111       0.000000007067
112       0.000000089346
113      -0.000000021289
114       0.000000035454
115       0.000000041115
116       0.000000043194
117       0.000000057576
118      -0.000000029577
119      -0.000000035923
120       0.000000043796
121       0.000000010404
122      -0.000000115153
123      -0.000000083818
124      -0.000000018182
125       0.000000034494
126       0.000000009810
127      -0.000000045387
128      -0.000000027547
129       0.000000129013
130       0.000000089504
131      -0.000000000708
132      -0.000000027505
133       0.000000001700
134       0.000000033374
135       0.000000026651
136      -0.000000101344
137      -0.000000069646
138       0.000000007566
139       0.000000033058
140      -0.000000015230
141      -0.000000037978
142      -0.000000038140
143       0.000000119719
144       0.000000080334
145      -0.000000017886
146      -0.000000043557
147       0.000000026778
148       0.000000050063
149       0.000000053453
150      -0.000000157317
151      -0.000000104187
152       0.000000027744
153      -0.000000047123
154       0.000000020364
155       0.000000039595
156       0.000000055813
157      -0.000000163894
158      -0.000000115835
159       0.000000031354
160       0.000000014017
161      -0.000000066643
162       0.000000115359
163      -0.000000179137
164      -0.000000107057
165      -0.000000412150
166       0.000000037873
167      -0.000000018336
168       0.000000030317
169       0.000000054947
170      -0.000000022639
171       0.000000036236
172       0.000000193690
173      -0.000000118444
174       0.000000200844
175       0.000000001827
176      -0.000000060635
177       0.000000027947
178      -0.000000032314
179       0.000000037297
180      -0.000000005486
181       0.000000122082
182      -0.000000055200
183       0.000000067153
184      -0.000000075367
185       0.000000048857
186      -0.000000038227
187       0.000000017524
188      -0.000000059896
189       0.000000074209
190       0.000000013627
191      -0.000000053169
192       0.000000014364
193      -0.000000068282
194       0.000000118481
195      -0.000000187278
196      -0.000000120402
197      -0.000000440535
198      -0.000000030160
199       0.000000030173
200       0.000000032065
201      -0.000000036393
202       0.000000042168
203       0.000000035038
204      -0.000000178570
205       0.000000146176
206       0.000000209495
207      -0.000000000470
208       0.000000047532
209      -0.000000049733
210       0.000000002396
211       0.000000048356
212      -0.000000000733
213      -0.000000096120
214       0.000000101971
215      -0.000000006248
216      -0.000000099946
217       0.000000047352
218       0.000000033133
219      -0.000000034553
220       0.000000001377
221       0.000000096283
222       0.000000039018
223       0.000000036041
224       0.000000014030
225      -0.000000066689
226       0.000000115447
227      -0.000000179237
228      -0.000000106307
229      -0.000000408383
230      -0.000000029342
231      -0.000000041954
232      -0.000000010087
233      -0.000000037432
234      -0.000000054212
235      -0.000000019653
236      -0.000000174359
237      -0.000000247032
238      -0.000000021239
239       0.000000035016
240      -0.000000017809
241      -0.000000025920
242       0.000000023732
243      -0.000000064325
244      -0.000000069705
245       0.000000037355
246       0.000000054577
247      -0.000000047834
248       0.000000129558
249      -0.000000035802
250      -0.000000034557
251      -0.000000049520
252      -0.000000017164
253       0.000000046282
254       0.000000091367
255      -0.000000024035
 Sym=     1a
 Ene= -7.11908220508490E+02
 Spin= Alpha
 Occup= 1.000000
  1       0.000000002944
  2       0.000000002418
  3       0.000000004204
  4       0.000000006737
  5       0.000000012671
  6       0.000000010492
  7       0.000000008255
  8      -0.000000071588
  9      -0.000000094423
 10       0.000000139464
 11       0.000000073711
 12      -0.000000137900
 13       0.000000125472
 14      -0.000000088067
 15      -0.000000158539
 16       0.000001182196
 17      -0.000003325051
 18       0.000005529701
 19      -0.000005624068
 20       0.000001844044
 21      -0.000000435251
 22       0.166229335621
 23       0.022955634773
 24       0.069850086898
 25       0.279043149408
 26       0.038534786781
 27       0.117254809992
 28       0.416827129093
 29       0.057562252696
 30       0.175152023909
 31       0.217117060312
 32       0.029983011939
 33       0.091233324053
 34       0.006912687143
 35       0.000954675243
 36       0.002904635798
 37       0.004004670682
 38       0.000552920559
 39       0.001682952473
 40      -0.002768102446
 41      -0.000382063997
 42      -0.001163501188
 43       0.001714303602
 44       0.000236390956
 45       0.000720943159
 46      -0.001053482048
 47      -0.000144892147
 48      -0.000443664835
 49       0.000660265334
 50       0.000090250069
 51       0.000279007172
 52      -0.000411503709
 53      -0.000055624046
 54      -0.000175104739
 55       0.000247225765
 56       0.000032612260
 57       0.000106780621
 58      -0.000048045983
 59      -0.000006521419
 60      -0.000020145818
 61      -0.000000223637
 62      -0.000000132559
 63      -0.000000219466
 64       0.000000366775
 65      -0.000000019457
 66      -0.000000693053
 67      -0.000001109273
 68       0.000000847045
 69      -0.000000510386
 70       0.000001268665
 71       0.000000409170
 72       0.000001015702
 73      -0.000001137177
 74       0.000001032420
 75      -0.000001404580
 76      -0.000000943624
 77      -0.000001942885
 78       0.000001965513
 79      -0.000001623970
 80       0.000002551324
 81       0.000001799757
 82       0.000003607995
 83      -0.000003582055
 84       0.000002910019
 85      -0.000004699578
 86      -0.000003438772
 87      -0.000006999220
 88       0.000007024414
 89      -0.000005766650
 90       0.000009166722
 91       0.000007058664
 92       0.000014385927
 93      -0.000014470313
 94       0.000011871640
 95      -0.000018834028
 96      -0.000011248919
 97      -0.000023353064
 98       0.000023817846
 99      -0.000019783310
100       0.000030809798
101       0.000017770068
102       0.000039413900
103      -0.000041506256
104       0.000035844907
105      -0.000053134223
106      -0.000002625093
107      -0.000005116160
108       0.000004856907
109      -0.000003798987
110       0.000006468048
111      -0.000001058463
112      -0.000000508021
113       0.000000479230
114       0.000000919952
115       0.000000845327
116      -0.000000838056
117       0.000000011733
118       0.000001039063
119       0.000000181979
120       0.000000221273
121      -0.000000876858
122      -0.000000401115
123       0.000000081633
124      -0.000000233923
125      -0.000001327533
126       0.000000114637
127      -0.000000928530
128       0.000001019181
129       0.000000058667
130       0.000000770929
131       0.000000602312
132       0.000002312325
133      -0.000000515862
134       0.000002155321
135      -0.000001651201
136       0.000000302599
137      -0.000002169642
138      -0.000001354738
139      -0.000005161236
140       0.000001412069
141      -0.000005278604
142       0.000003613410
143      -0.000001004717
144       0.000005487714
145       0.000003251501
146       0.000010238761
147      -0.000003019397
148       0.000010886603
149      -0.000007162281
150       0.000002254599
151      -0.000011339200
152      -0.000006562849
153      -0.000015809348
154       0.000005719827
155      -0.000018596996
156       0.000011354148
157      -0.000005333351
158       0.000018638302
159       0.000010148968
160       0.000001628304
161      -0.000007673644
162       0.000014435380
163      -0.000037090975
164      -0.000062834982
165      -0.000098484379
166       0.000005758506
167      -0.000002726762
168       0.000004637462
169      -0.000019616265
170       0.000008762503
171      -0.000015498409
172       0.000020943528
173      -0.000006821282
174       0.000015320943
175      -0.000000050982
176      -0.000003994561
177       0.000002032017
178      -0.000001647218
179       0.000002545577
180       0.000000183060
181       0.000015190446
182      -0.000007586194
183       0.000006639146
184      -0.000009525723
185       0.000001432359
186      -0.000001233519
187       0.000000718515
188      -0.000001503048
189       0.000002368990
190      -0.000000030164
191      -0.000001580978
192      -0.000000398718
193       0.000001880065
194      -0.000003540530
195       0.000009127389
196       0.000015339670
197       0.000023291741
198       0.000001342535
199      -0.000001061020
200      -0.000001033320
201      -0.000005383129
202       0.000003352885
203       0.000002984456
204       0.000009732751
205      -0.000001866865
206       0.000000350030
207       0.000000447702
208      -0.000000600058
209       0.000001079487
210      -0.000000393300
211      -0.000000585215
212      -0.000001171488
213       0.000002563752
214      -0.000003769369
215       0.000001003064
216       0.000002442056
217      -0.000000045734
218      -0.000000491995
219       0.000000741099
220      -0.000000547510
221      -0.000000618662
222      -0.000000484462
223       0.000000120848
224      -0.000001324771
225       0.000006243384
226      -0.000011745597
227       0.000030184250
228       0.000051011170
229       0.000079443925
230       0.000003762840
231       0.000005066067
232       0.000001284724
233      -0.000013202598
234      -0.000016640813
235      -0.000004548513
236       0.000015837484
237       0.000013972998
238       0.000005807744
239      -0.000002059163
240       0.000000794329
241       0.000001139247
242      -0.000001670123
243       0.000003269667
244       0.000007694916
245      -0.000003089252
246      -0.000004453786
247       0.000005827313
248      -0.000012688211
249       0.000000810176
250       0.000000763967
251       0.000001418105
252       0.000000444511
253      -0.000000837396
254      -0.000002378299
255       0.000000007413
 Sym=     1a
 Ene= -7.11906478627657E+02
 Spin= Alpha
 Occup= 1.000000
  1       0.000000000406
  2       0.000000000334
  3       0.000000000876
  4       0.000000000613
  5       0.000000004097
  6      -0.000000002586
  7       0.000000007390
  8      -0.000000056249
  9      -0.000000067695
 10       0.000000180912
 11       0.000000120245
 12      -0.000000220192
 13       0.000000224946
 14      -0.000000199184
 15      -0.000000124195
 16       0.000001594382
 17      -0.000004821564
 18       0.000008400965
 19      -0.000008676056
 20       0.000002604705
 21      -0.000000606322
 22       0.055459374855
 23      -0.152518087834
 24      -0.081858525433
 25       0.093097675321
 26      -0.256026690734
 27      -0.137412981939
 28       0.139066727135
 29      -0.382445471003
 30      -0.205263742044
 31       0.072436247090
 32      -0.199206078688
 33      -0.106916514594
 34       0.002306240971
 35      -0.006342170521
 36      -0.003404111592
 37       0.001336239809
 38      -0.003675154854
 39      -0.001972146513
 40      -0.000923477828
 41       0.002540360859
 42       0.001362781935
 43       0.000571780564
 44      -0.001573697151
 45      -0.000843470801
 46      -0.000351237532
 47       0.000968031704
 48       0.000517610409
 49       0.000219910581
 50      -0.000608068169
 51      -0.000323304857
 52      -0.000136651713
 53       0.000380457522
 54       0.000200101846
 55       0.000081524710
 56      -0.000230359517
 57      -0.000118336970
 58      -0.000016164298
 59       0.000044300229
 60       0.000023610001
 61       0.000000379144
 62       0.000000102959
 63       0.000000146323
 64       0.000000412443
 65       0.000000359827
 66       0.000000772502
 67      -0.000001288548
 68       0.000000916763
 69       0.000000458697
 70      -0.000001130500
 71      -0.000000372307
 72       0.000001510879
 73      -0.000000718481
 74       0.000000041316
 75       0.000001627930
 76       0.000000895715
 77      -0.000002637990
 78       0.000001446296
 79       0.000000209322
 80      -0.000002731738
 81      -0.000001714959
 82       0.000004824144
 83      -0.000002702376
 84      -0.000000468886
 85       0.000004962693
 86       0.000003261817
 87      -0.000009445505
 88       0.000005229142
 89       0.000000813296
 90      -0.000009766400
 91      -0.000006715578
 92       0.000019468130
 93      -0.000010817668
 94      -0.000001687947
 95       0.000020127530
 96       0.000010700658
 97      -0.000031902526
 98       0.000017520216
 99       0.000002446253
100      -0.000033169094
101      -0.000017221943
102       0.000055087649
103      -0.000028797214
104      -0.000002644920
105       0.000057800304
106       0.000002557637
107      -0.000006721448
108       0.000003867082
109       0.000000826778
110      -0.000006728206
111       0.000000674450
112      -0.000000825049
113       0.000000069040
114       0.000000610692
115      -0.000000481810
116      -0.000000077570
117       0.000000633645
118      -0.000000814390
119       0.000000045019
120       0.000000061723
121      -0.000000531441
122      -0.000000040295
123       0.000000294386
124      -0.000000928476
125       0.000001150125
126       0.000000796309
127      -0.000000145058
128       0.000000622770
129       0.000000602540
130      -0.000000485570
131       0.000001348641
132      -0.000002080518
133      -0.000002173652
134       0.000000280540
135      -0.000001042971