[Molden Format]
[Title]
 Molden file created by orca_2mkl for BaseName=/home/nikolayandreadi_2125/_scratch/CC_1/PaOF3

[Atoms] AU
Pa   1  91         -1.0192710335         1.4024016688       -22.4793430507 
F    2   9          1.9160103347         0.2862878401       -24.9019417188 
F    3   9         -1.4706396795        -1.4891703339       -19.8021926032 
F    4   9         -4.3294060365         1.4817342616       -24.6626910519 
O    5   8         -0.3960922668         4.3824393107       -21.0358455077 
[GTO]
  1 0
s   9 1.0 
 57631858.1725339964     15318.1146839455
 26196299.1693340018     -5565.0020035622
 11907408.7133339997      8721.7488303571
  5412458.5060609998       341.2948940372
  2460208.4118459998      4085.4543694394
  1118276.5508389999      1905.4034809116
   508307.5231090000      2611.4146297113
   231048.8741400000      1976.6043094082
   105022.2155180000      2031.4725197545
s   1 1.0 
    47737.3706900000      2301.7278018772
s   1 1.0 
    21698.8048590000      1274.1980990770
s   1 1.0 
     9863.0931180000       705.3748034003
s   1 1.0 
     4483.2241440000       390.4837195855
s   1 1.0 
     2037.8291570000       216.1652706843
s   1 1.0 
      926.2859800000       119.6654863652
s   1 1.0 
      421.0390820000        66.2448162538
s   1 1.0 
      191.3814010000        36.6720247745
s   1 1.0 
       86.9915460000        20.3010209355
s   1 1.0 
       39.5416120000        11.2383064381
s   1 1.0 
       17.9734600000         6.2213388954
s   1 1.0 
        8.1697540000         3.4440292161
s   1 1.0 
        3.7135250000         1.9065572739
s   1 1.0 
        1.6879660000         1.0554383322
s   1 1.0 
        0.7672570000         0.5842728914
s   1 1.0 
        0.3487530000         0.3234435957
s   1 1.0 
        0.1585240000         0.1790528998
s   1 1.0 
        0.0720560000         0.0991203221
s   1 1.0 
        0.0327530000         0.0548716988
s   1 1.0 
        0.0148880000         0.0303764741
p   8 1.0 
   820588.6600690000    117960.8380814268
   341911.9416950000     10293.3338078988
   142463.3090400000     34535.2725490902
    59359.7121000000     17348.6583204729
    24733.2133750000     16831.7677005322
    10305.5055730000     13674.5392108057
     4293.9606550000     12899.6246819168
     1789.1502730000     11789.0634615762
p   1 1.0 
      745.4792800000      5552.4487579542
p   1 1.0 
      310.6163670000      1858.7479720243
p   1 1.0 
      129.4234860000       622.2378919893
p   1 1.0 
       53.9264530000       208.3015048177
p   1 1.0 
       22.4693550000        69.7313936668
p   1 1.0 
        9.3622310000        23.3434089560
p   1 1.0 
        3.9009300000         7.8144836060
p   1 1.0 
        1.6253870000         2.6159899143
p   1 1.0 
        0.6772450000         0.8757342738
p   1 1.0 
        0.2821850000         0.2931618768
p   1 1.0 
        0.1175770000         0.0981393227
p   1 1.0 
        0.0489910000         0.0328537894
d   7 1.0 
    39984.8312080000     49820.8214421646
    15993.9324830000     24763.2125679906
     6397.5729930000     27687.8895786202
     2559.0291970000     25715.0680190714
     1023.6116790000     27614.8741414884
      409.4446720000     25104.2866847335
      163.7778690000     17021.7824315036
d   1 1.0 
       65.5111470000      4300.5271063730
d   1 1.0 
       26.2044590000       865.2202593661
d   1 1.0 
       10.4817840000       174.0731121316
d   1 1.0 
        4.1927130000        35.0216472939
d   1 1.0 
        1.6770850000         7.0459809407
d   1 1.0 
        0.6708340000         1.4175763168
d   1 1.0 
        0.2683340000         0.2852020000
d   1 1.0 
        0.1073330000         0.0573790433
d   1 1.0 
        0.0429330000         0.0115439582
f   6 1.0 
     4212.3892570000     53509.6197850903
     1620.1497140000     46215.8871057453
      623.1345050000     51850.9767921649
      239.6671170000     50432.9890340126
       92.1796610000     36159.3884368328
       35.4537160000     14379.0722744372
f   1 1.0 
       13.6360440000      2037.2717616429
f   1 1.0 
        5.2446320000       237.3334078456
f   1 1.0 
        2.0171660000        27.6483213038
f   1 1.0 
        0.7758330000         3.2209103577
f   1 1.0 
        0.2983970000         0.3752213982
f   1 1.0 
        0.1147680000         0.0437116207

  2 0
s   6 1.0 
    35479.1004410000         1.9229128581
     5318.4728983000         2.2734773358
     1210.4810975000         3.4747482552
      342.8551814000         5.2879612972
      112.0194318100         7.1666332516
       40.7147402500         7.7556346254
s   1 1.0 
       16.0396781100         5.7122450312
s   1 1.0 
        6.5038186700         2.9025947842
s   1 1.0 
        1.5440477500         0.9872011154
s   1 1.0 
        0.6122345300        -0.4932856223
s   1 1.0 
        0.2402798000         0.2445952611
p   4 1.0 
       80.2339004800         4.2755032106
       18.5940107400         4.7314752302
        5.6867902700         4.0864798013
        1.9511006300         2.2989954518
p   1 1.0 
        0.6697021100         0.8635593126
p   1 1.0 
        0.2165130000         0.2105208234
d   1 1.0 
        3.1070000000        20.7284714039
d   1 1.0 
        0.8550000000         2.1672588463
f   1 1.0 
        1.9170000000        24.6547062912

  3 0
s   6 1.0 
    35479.1004410000         1.9229128581
     5318.4728983000         2.2734773358
     1210.4810975000         3.4747482552
      342.8551814000         5.2879612972
      112.0194318100         7.1666332516
       40.7147402500         7.7556346254
s   1 1.0 
       16.0396781100         5.7122450312
s   1 1.0 
        6.5038186700         2.9025947842
s   1 1.0 
        1.5440477500         0.9872011154
s   1 1.0 
        0.6122345300        -0.4932856223
s   1 1.0 
        0.2402798000         0.2445952611
p   4 1.0 
       80.2339004800         4.2755032106
       18.5940107400         4.7314752302
        5.6867902700         4.0864798013
        1.9511006300         2.2989954518
p   1 1.0 
        0.6697021100         0.8635593126
p   1 1.0 
        0.2165130000         0.2105208234
d   1 1.0 
        3.1070000000        20.7284714039
d   1 1.0 
        0.8550000000         2.1672588463
f   1 1.0 
        1.9170000000        24.6547062912

  4 0
s   6 1.0 
    35479.1004410000         1.9229128581
     5318.4728983000         2.2734773358
     1210.4810975000         3.4747482552
      342.8551814000         5.2879612972
      112.0194318100         7.1666332516
       40.7147402500         7.7556346254
s   1 1.0 
       16.0396781100         5.7122450312
s   1 1.0 
        6.5038186700         2.9025947842
s   1 1.0 
        1.5440477500         0.9872011154
s   1 1.0 
        0.6122345300        -0.4932856223
s   1 1.0 
        0.2402798000         0.2445952611
p   4 1.0 
       80.2339004800         4.2755032106
       18.5940107400         4.7314752302
        5.6867902700         4.0864798013
        1.9511006300         2.2989954518
p   1 1.0 
        0.6697021100         0.8635593126
p   1 1.0 
        0.2165130000         0.2105208234
d   1 1.0 
        3.1070000000        20.7284714039
d   1 1.0 
        0.8550000000         2.1672588463
f   1 1.0 
        1.9170000000        24.6547062912

  5 0
s   6 1.0 
    27032.3826310000         1.4645050749
     4052.3871392000         1.8244031008
      922.3272271000         2.8547160967
      261.2407098900         4.3654874290
       85.3546413500         5.8940772662
       31.0350352400         6.2963020147
s   1 1.0 
       12.2608607300         4.6698272139
s   1 1.0 
        4.9987076000         2.3826123703
s   1 1.0 
        1.1703108200         0.8019291632
s   1 1.0 
        0.4647474100        -0.4011648063
s   1 1.0 
        0.1850453600         0.2010799377
p   4 1.0 
       63.2749548000         3.0898340730
       14.6270493800         3.3923831935
        4.4501223500         2.9482801524
        1.5275799600         1.7113350234
p   1 1.0 
        0.5293511800         0.6436057935
p   1 1.0 
        0.1747842100         0.1610897223
d   1 1.0 
        2.3140000000        12.3767310624
d   1 1.0 
        0.6450000000         1.3234257612
f   1 1.0 
        1.4280000000        12.7097950062

[5D]
[9G]
[MO]
 Sym=     1a
 Ene= -4.14986455462852E+03
 Spin= Alpha
 Occup= 2.000000
  1       0.082736391035
  2       0.064032680315
  3       0.110205831821
  4       0.176314897449
  5       0.264167092548
  6       0.304987636894
  7       0.195137627575
  8       0.032838625065
  9       0.000846808761
 10      -0.000591066023
 11       0.000433252561
 12      -0.000323526068
 13       0.000231232728
 14      -0.000156527527
 15       0.000105034053
 16      -0.000071174494
 17       0.000047703508
 18      -0.000029229338
 19       0.000012557490
 20      -0.000005688439
 21       0.000001553168
 22       0.000000006895
 23       0.000000031731
 24       0.000000016787
 25       0.000000021288
 26       0.000000101828
 27       0.000000049279
 28       0.000000010367
 29       0.000000049580
 30       0.000000023994
 31       0.000000002110
 32       0.000000010124
 33       0.000000004890
 34      -0.000000000754
 35      -0.000000003681
 36      -0.000000001742
 37       0.000000000602
 38       0.000000003000
 39       0.000000001394
 40      -0.000000002291
 41      -0.000000011135
 42      -0.000000005322
 43       0.000000001146
 44       0.000000005717
 45       0.000000002718
 46       0.000000013571
 47       0.000000064577
 48       0.000000031273
 49      -0.000000086218
 50      -0.000000411952
 51      -0.000000199362
 52       0.000000224042
 53       0.000001071358
 54       0.000000518330
 55      -0.000000499553
 56      -0.000002390865
 57      -0.000001155899
 58       0.000000033912
 59       0.000000163946
 60       0.000000077769
 61      -0.000000000017
 62       0.000000000027
 63       0.000000000097
 64      -0.000000000045
 65       0.000000000027
 66      -0.000000003319
 67       0.000000002021
 68       0.000000009678
 69      -0.000000009527
 70       0.000000004172
 71      -0.000000006498
 72       0.000000003987
 73       0.000000019062
 74      -0.000000018947
 75       0.000000008264
 76       0.000000015285
 77      -0.000000009351
 78      -0.000000044689
 79       0.000000044250
 80      -0.000000019325
 81      -0.000000030935
 82       0.000000018915
 83       0.000000090393
 84      -0.000000089429
 85       0.000000039069
 86       0.000000054992
 87      -0.000000033631
 88      -0.000000160698
 89       0.000000158974
 90      -0.000000069455
 91      -0.000000058623
 92       0.000000035898
 93       0.000000171342
 94      -0.000000169564
 95       0.000000074069
 96      -0.000000045499
 97       0.000000027618
 98       0.000000132905
 99      -0.000000131303
100       0.000000057454
101       0.000000347295
102      -0.000000212452
103      -0.000001016750
104       0.000001005639
105      -0.000000439697
106      -0.000000052299
107       0.000000032005
108       0.000000152974
109      -0.000000151382
110       0.000000066111
111      -0.000000004177
112       0.000000000070
113      -0.000000004552
114      -0.000000020336
115       0.000000008254
116       0.000000005995
117       0.000000007567
118       0.000000012265
119      -0.000000000174
120       0.000000012526
121       0.000000056771
122      -0.000000023081
123      -0.000000017031
124      -0.000000021587
125      -0.000000028579
126       0.000000000241
127      -0.000000024810
128      -0.000000116939
129       0.000000047747
130       0.000000036697
131       0.000000047005
132       0.000000058852
133      -0.000000000302
134       0.000000045952
135       0.000000222803
136      -0.000000091244
137      -0.000000072064
138      -0.000000092928
139      -0.000000093614
140       0.000000000761
141      -0.000000080314
142      -0.000000379912
143       0.000000155176
144       0.000000119600
145       0.000000153270
146      -0.000000060287
147      -0.000000005184
148       0.000000096011
149       0.000000275750
150      -0.000000104797
151      -0.000000024427
152      -0.000000012915
153       0.000000281332
154       0.000000007382
155      -0.000000010156
156       0.000000254371
157      -0.000000117336
158      -0.000000185752
159      -0.000000269116
160      -0.000000008572
161       0.000000036956
162      -0.000000061033
163       0.000000053365
164      -0.000000113903
165       0.000000010470
166      -0.000000031534
167       0.000000002391
168       0.000000020081
169      -0.000000053513
170       0.000000054426
171       0.000000065294
172      -0.000000176455
173      -0.000000036292
174       0.000000081515
175       0.000000002890
176      -0.000000053398
177       0.000000018065
178       0.000000029527
179      -0.000000022077
180      -0.000000004478
181       0.000000100556
182      -0.000000032460
183      -0.000000056907
184       0.000000039582
185       0.000000034304
186       0.000000038440
187      -0.000000014333
188      -0.000000058537
189       0.000000047947
190      -0.000000019172
191       0.000000034692
192      -0.000000008570
193       0.000000036945
194      -0.000000061008
195       0.000000053284
196      -0.000000113787
197       0.000000012430
198       0.000000002677
199       0.000000020236
200      -0.000000031248
201       0.000000015955
202       0.000000091224
203      -0.000000039986
204       0.000000003747
205       0.000000057409
206      -0.000000188401
207       0.000000015930
208      -0.000000008793
209      -0.000000057445
210      -0.000000028856
211       0.000000009128
212      -0.000000032584
213       0.000000016305
214       0.000000107474
215       0.000000053111
216      -0.000000016730
217      -0.000000022744
218      -0.000000009108
219      -0.000000059160
220      -0.000000068538
221       0.000000021969
222      -0.000000012923
223      -0.000000026413
224      -0.000000008568
225       0.000000036939
226      -0.000000061004
227       0.000000053309
228      -0.000000114000
229       0.000000009976
230       0.000000031588
231      -0.000000009702
232       0.000000017668
233       0.000000074431
234       0.000000029956
235       0.000000060352
236       0.000000156366
237      -0.000000099955
238       0.000000068990
239      -0.000000004197
240       0.000000053244
241      -0.000000003138
242       0.000000040644
243      -0.000000005220
244       0.000000008810
245      -0.000000099543
246       0.000000007170
247      -0.000000076060
248       0.000000012270
249       0.000000040339
250      -0.000000025254
251       0.000000000573
252      -0.000000075405
253       0.000000006555
254       0.000000046287
255      -0.000000004574
256      -0.000000022666
257       0.000000107308
258      -0.000000216308
259       0.000000847003
260       0.000001599228
261       0.000003842603
262      -0.000000021521
263      -0.000000102838
264      -0.000000049874
265       0.000000113102
266       0.000000540461
267       0.000000262097
268      -0.000000231809
269      -0.000001108431
270      -0.000000537149
271      -0.000000003108
272       0.000000001948
273       0.000000009319
274      -0.000000009210
275       0.000000004048
276       0.000000115556
277      -0.000000070802
278      -0.000000338511
279       0.000000334059
280      -0.000000146197
281      -0.000000062516
282      -0.000000001267
283      -0.000000007107
284      -0.000000090254
285       0.000000039334
286       0.000000048083
287       0.000000067363
 Sym=     1a
 Ene= -7.80474965380050E+02
 Spin= Alpha
 Occup= 2.000000
  1      -0.034737774006
  2      -0.029020392488
  3      -0.048844211461
  4      -0.085593374129
  5      -0.138057723291
  6      -0.178936042807
  7      -0.077157449342
  8       0.363378650210
  9       0.614615130375
 10       0.174692643805
 11      -0.002212346979
 12       0.002024032259
 13      -0.001119841607
 14       0.000602074194
 15      -0.000349853035
 16       0.000227199741
 17      -0.000149730142
 18       0.000090655786
 19      -0.000038888695
 20       0.000017588675
 21      -0.000004798047
 22       0.000000839968
 23       0.000004016106
 24       0.000001945936
 25       0.000001374409
 26       0.000006569755
 27       0.000003185235
 28       0.000002384733
 29       0.000011396242
 30       0.000005528059
 31       0.000001839241
 32       0.000008792520
 33       0.000004262366
 34       0.000000312611
 35       0.000001497392
 36       0.000000723165
 37       0.000000016442
 38       0.000000077667
 39       0.000000038282
 40       0.000000010863
 41       0.000000053145
 42       0.000000024864
 43      -0.000000012469
 44      -0.000000060566
 45      -0.000000028965
 46      -0.000000046783
 47      -0.000000222943
 48      -0.000000107738
 49       0.000000265716
 50       0.000001269737
 51       0.000000614345
 52      -0.000000675558
 53      -0.000003230574
 54      -0.000001562861
 55       0.000001528838
 56       0.000007317187
 57       0.000003537376
 58      -0.000000103631
 59      -0.000000501028
 60      -0.000000237619
 61       0.000000028689
 62      -0.000000016858
 63      -0.000000082947
 64       0.000000085155
 65      -0.000000036940
 66       0.000000223789
 67      -0.000000137031
 68      -0.000000655034
 69       0.000000646661
 70      -0.000000282650
 71      -0.000000025221
 72       0.000000015375
 73       0.000000072682
 74      -0.000000069462
 75       0.000000030573
 76      -0.000000001915
 77       0.000000001132
 78       0.000000005708
 79      -0.000000006650
 80       0.000000002816
 81       0.000000065831
 82      -0.000000040197
 83      -0.000000192122
 84       0.000000190138
 85      -0.000000083078
 86      -0.000000161951
 87       0.000000099038
 88       0.000000473279
 89      -0.000000468226
 90       0.000000204578
 91       0.000000164544
 92      -0.000000100761
 93      -0.000000480882
 94       0.000000475904
 95      -0.000000207885
 96       0.000000140494
 97      -0.000000085299
 98      -0.000000410473
 99       0.000000405749
100      -0.000000177509
101      -0.000001064304
102       0.000000651100
103       0.000003115969
104      -0.000003081823
105       0.000001347468
106       0.000000160907
107      -0.000000098474
108      -0.000000470669
109       0.000000465743
110      -0.000000203398
111      -0.000000082251
112       0.000000001290
113      -0.000000087201
114      -0.000000391925
115       0.000000159183
116       0.000000116394
117       0.000000147191
118       0.000000010677
119       0.000000001091
120      -0.000000022020
121      -0.000000065972
122       0.000000025287
123       0.000000007631
124       0.000000005972
125       0.000000059232
126      -0.000000001803
127       0.000000085974
128       0.000000363475
129      -0.000000146585
130      -0.000000099632
131      -0.000000123425
132      -0.000000160764
133       0.000000001166
134      -0.000000134534
135      -0.000000640228
136       0.000000261677
137       0.000000203014
138       0.000000260639
139       0.000000271850
140      -0.000000002122
141       0.000000230845
142       0.000001094974
143      -0.000000447372
144      -0.000000345719
145      -0.000000443330
146       0.000000186160
147       0.000000015352
148      -0.000000279331
149      -0.000000791277
150       0.000000299918
151       0.000000063735
152       0.000000027022
153      -0.000000859555
154      -0.000000022263
155       0.000000023592
156      -0.000000803464
157       0.000000368840
158       0.000000572670
159       0.000000827891
160       0.000000024475
161      -0.000000113591
162       0.000000191286
163      -0.000000184763
164       0.000000321439
165      -0.000000032054
166       0.000000100077
167      -0.000000009040
168      -0.000000064634
169       0.000000143491
170      -0.000000158558
171      -0.000000182882
172       0.000000535435
173       0.000000111273
174      -0.000000246671
175      -0.000000009192
176       0.000000166970
177      -0.000000056605
178      -0.000000092230
179       0.000000069320
180       0.000000015228
181      -0.000000326495
182       0.000000106174
183       0.000000184116
184      -0.000000129859
185      -0.000000107144
186      -0.000000120164
187       0.000000044752
188       0.000000182637
189      -0.000000149843
190       0.000000059869
191      -0.000000108443
192       0.000000024470
193      -0.000000113563
194       0.000000191218
195      -0.000000184529
196       0.000000321121
197      -0.000000037804
198      -0.000000008825
199      -0.000000065869
200       0.000000098796
201      -0.000000045632
202      -0.000000258811
203       0.000000103923
204      -0.000000011102
205      -0.000000172841
206       0.000000571901
207      -0.000000049494
208       0.000000027542
209       0.000000179785
210       0.000000090303
211      -0.000000028564
212       0.000000104193
213      -0.000000053140
214      -0.000000349574
215      -0.000000173012
216       0.000000054521
217       0.000000071228
218       0.000000028459
219       0.000000184724
220       0.000000214002
221      -0.000000068588
222       0.000000040441
223       0.000000082614
224       0.000000024465
225      -0.000000113543
226       0.000000191203
227      -0.000000184602
228       0.000000321719
229      -0.000000030589
230      -0.000000100850
231       0.000000029455
232      -0.000000056951
233      -0.000000204802
234      -0.000000091960
235      -0.000000169426
236      -0.000000474022
237       0.000000304364
238      -0.000000208690
239       0.000000012974
240      -0.000000166549
241       0.000000009727
242      -0.000000127220
243       0.000000016041
244      -0.000000027952
245       0.000000323583
246      -0.000000022673
247       0.000000247432
248      -0.000000038370
249      -0.000000126014
250       0.000000078976
251      -0.000000001859
252       0.000000235437
253      -0.000000020291
254      -0.000000144640
255       0.000000014222
256       0.000000061324
257      -0.000000305446
258       0.000000626069
259      -0.000002541577
260      -0.000004886909
261      -0.000011790972
262       0.000000062324
263       0.000000297807
264       0.000000144432
265      -0.000000345719
266      -0.000001652087
267      -0.000000801135
268       0.000000713310
269       0.000003410880
270       0.000001652848
271       0.000000005569
272      -0.000000003550
273      -0.000000016985
274       0.000000016796
275      -0.000000007407
276      -0.000000346426
277       0.000000212256
278       0.000001014817
279      -0.000001001474
280       0.000000438285
281       0.000000177891
282       0.000000003599
283       0.000000020299
284       0.000000257131
285      -0.000000112049
286      -0.000000136887
287      -0.000000191751
 Sym=     1a
 Ene= -6.57161665881828E+02
 Spin= Alpha
 Occup= 2.000000
  1       0.000000001250
  2       0.000000001053
  3       0.000000001772
  4       0.000000003130
  5       0.000000005104
  6       0.000000006379
  7       0.000000002306
  8      -0.000000017412
  9      -0.000000020795
 10       0.000000001070
 11      -0.000000002398
 12       0.000000002898
 13      -0.000000008629
 14       0.000000019464
 15      -0.000000047594
 16       0.000000111797
 17      -0.000000166065
 18       0.000000062497
 19       0.000000332428
 20      -0.000000032172
 21       0.000000003159
 22       0.087097242441
 23      -0.081109996857
 24       0.130165164724
 25       0.149289799382
 26      -0.139027308333
 27       0.223110753036
 28       0.225943590345
 29      -0.210411753919
 30       0.337668374429
 31       0.119419130893
 32      -0.111210008018
 33       0.178469607489
 34       0.004107414922
 35      -0.003825061070
 36       0.006138445335
 37       0.002166337456
 38      -0.002017420058
 39       0.003237559010
 40      -0.001505634536
 41       0.001402136813
 42      -0.002250158405
 43       0.000931714495
 44      -0.000867670353
 45       0.001392457443
 46      -0.000572038726
 47       0.000532715068
 48      -0.000854948121
 49       0.000357539328
 50      -0.000332922031
 51       0.000534409702
 52      -0.000218925915
 53       0.000203744014
 54      -0.000327253184
 55       0.000118363354
 56      -0.000109861158
 57       0.000176986353
 58      -0.000025084306
 59       0.000023393893
 60      -0.000037522544
 61       0.000003034305
 62       0.000001208728
 63       0.000001901933
 64       0.000001972312
 65       0.000001949561
 66       0.000000454196
 67       0.000001263183
 68       0.000001222836
 69       0.000001480051
 70       0.000000293791
 71       0.000000546807
 72      -0.000001426699
 73      -0.000001073098
 74      -0.000001440104
 75       0.000000352912
 76      -0.000000642725
 77       0.000002290988
 78       0.000001783769
 79       0.000002359178
 80      -0.000000416697
 81       0.000001054732
 82      -0.000004138755
 83      -0.000003247732
 84      -0.000004282057
 85       0.000000685884
 86      -0.000002129436
 87       0.000008281702
 88       0.000006490574
 89       0.000008564964
 90      -0.000001386543
 91       0.000004545395
 92      -0.000017327765
 93      -0.000013543643
 94      -0.000017913908
 95       0.000002966466
 96      -0.000008033480
 97       0.000028668267
 98       0.000022215696
 99       0.000029558854
100      -0.000005255983
101       0.000009674560
102      -0.000039850143
103      -0.000031167688
104      -0.000041504557
105       0.000006372610
106      -0.000000934455
107       0.000004219631
108       0.000003351128
109       0.000004419662
110      -0.000000622873
111      -0.000000072779
112      -0.000000027222
113      -0.000000368726
114       0.000000052321
115      -0.000000148442
116      -0.000000173413
117       0.000000171049
118       0.000000319977
119      -0.000000069716
120       0.000000492042
121      -0.000000067796
122       0.000000015777
123       0.000000381159
124      -0.000000023227
125      -0.000000781372
126       0.000000237717
127      -0.000000799603
128       0.000000108070
129       0.000000188446
130      -0.000000796028
131      -0.000000202976
132       0.000001822575
133      -0.000000605321
134       0.000001560875
135      -0.000000208909
136      -0.000000611158
137       0.000001755060
138       0.000000669653
139      -0.000004895171
140       0.000001666196
141      -0.000003934442
142       0.000000523045
143       0.000001784309
144      -0.000004623232
145      -0.000001958019
146       0.000011251214
147      -0.000003932260
148       0.000008351146
149      -0.000001077561
150      -0.000004482980
151       0.000010362770
152       0.000004895090
153      -0.000015463061
154       0.000005028587
155      -0.000013691082
156       0.000001735491
157       0.000004927822
158      -0.000014969058
159      -0.000005214323
160       0.000000075332
161      -0.000000356524
162       0.000000671840
163      -0.000001720490
164      -0.000002795213
165      -0.000003821349
166       0.000000400763
167      -0.000000222847
168      -0.000000027118
169      -0.000001793201
170       0.000001177345
171      -0.000000615073
172       0.000002865135
173      -0.000002531899
174       0.000003659278
175      -0.000000480767
176       0.000000388972
177      -0.000000038313
178       0.000000017977
179      -0.000000168700
180       0.000001208594
181      -0.000001260177
182       0.000000191426
183       0.000000091420
184       0.000000285704
185       0.000000373799
186      -0.000000762283
187       0.000000294760
188       0.000000144257
189       0.000000085094
190       0.000000066126
191       0.000000313489
192       0.000001258272
193      -0.000005957173
194       0.000011232893
195      -0.000028775764
196      -0.000046266223
197      -0.000061945647
198      -0.000000583991
199      -0.000004692901
200       0.000004418154
201       0.000001459331
202       0.000015946489
203      -0.000015237356
204       0.000001808444
205      -0.000007397686
206       0.000007874054
207      -0.000000783777
208       0.000000842596
209       0.000003943330
210       0.000002093139
211      -0.000000914771
212       0.000003111079
213      -0.000002928649
214      -0.000015099819
215      -0.000007990023
216       0.000003156776
217       0.000000814958
218       0.000000339907
219       0.000001342932
220       0.000001689089
221      -0.000000974148
222       0.000000706321
223       0.000000709882
224      -0.000001339507
225       0.000006341877
226      -0.000011958656
227       0.000030639145
228       0.000049266971
229       0.000065978034
230       0.000005693821
231      -0.000000245937
232       0.000003868637
233      -0.000019243484
234       0.000001201378
235      -0.000013478448
236       0.000008212710
237      -0.000002076974
238       0.000007768059
239      -0.000000407417
240       0.000003892962
241       0.000000025632
242       0.000003109163
243       0.000000002349
244       0.000001317827
245      -0.000014944632
246       0.000000067119
247      -0.000011725409
248       0.000000211101
249       0.000001276141
250      -0.000000465472
251       0.000000010825
252      -0.000002059811
253      -0.000000191837
254       0.000001445769
255       0.000000175266
256       0.000000005172
257      -0.000000024235
258       0.000000045390
259      -0.000000145971
260      -0.000000397368
261      -0.000000856228
262       0.000000001821
263       0.000000009536
264      -0.000000003435
265       0.000000558786
266      -0.000000646303
267       0.000000853036
268       0.000002307698
269      -0.000001982613
270       0.000003352035
271      -0.000000044761
272       0.000000006061
273      -0.000000006242
274      -0.000000001892
275      -0.000000029078
276      -0.000001785860
277      -0.000001104724
278      -0.000001445307
279      -0.000001619928
280      -0.000001127969
281       0.000000264838
282      -0.000000066704
283       0.000000362228
284      -0.000000057528
285      -0.000000018448
286       0.000000307785
287       0.000000027113
 Sym=     1a