[Molden Format]
[Title]
 Molden file created by orca_2mkl for BaseName=/data01/Nikolayandreadi/heavy/opt3/UO2_2+

[Atoms] AU
U    1  92          5.4011736620       -19.3056954074       -40.7523012363 
O    2   8          5.2396663282       -22.4069268555       -41.1729807298 
O    3   8          5.6436425325       -16.2097457439       -41.1617727641 
[GTO]
  1 0
s   9 1.0 
 58915269.2040619999     15878.5363952950
 26779667.8200279996     -5784.7557541551
 12172576.2818310000      9027.3946318877
  5532989.2190140001       325.6868040056
  2514995.0995519999      4208.1243710139
  1143179.5907050001      1939.1491289669
   519627.0866840000      2669.4311026285
   236194.1303110000      2005.5172738201
   107360.9683230000      2058.9530636601
s   1 1.0 
    48800.4401470000      2340.0648682401
s   1 1.0 
    22182.0182490000      1295.4208592531
s   1 1.0 
    10082.7355680000       717.1233692609
s   1 1.0 
     4583.0616220000       396.9875296292
s   1 1.0 
     2083.2098280000       219.7656713216
s   1 1.0 
      946.9135580000       121.6586080998
s   1 1.0 
      430.4152540000        67.3481752053
s   1 1.0 
      195.6432970000        37.2828258248
s   1 1.0 
       88.9287710000        20.6391501245
s   1 1.0 
       40.4221690000        11.4254891526
s   1 1.0 
       18.3737130000         6.3249600754
s   1 1.0 
        8.3516880000         3.5013924304
s   1 1.0 
        3.7962220000         1.9383124866
s   1 1.0 
        1.7255550000         1.0730172334
s   1 1.0 
        0.7843430000         0.5940043302
s   1 1.0 
        0.3565200000         0.3288311987
s   1 1.0 
        0.1620540000         0.1820350044
s   1 1.0 
        0.0736610000         0.1007716339
s   1 1.0 
        0.0334820000         0.0557851540
s   1 1.0 
        0.0152190000         0.0308815919
p   8 1.0 
   839813.6669700000    124700.6825327761
   349922.3612380000     10799.0830937165
   145800.9838490000     36359.2991195727
    60750.4099370000     18163.2607860982
    25312.6708070000     17573.6487977577
    10546.9461700000     14195.6918408552
     4394.5609040000     13322.9302572221
     1831.0670430000     12107.7084625556
p   1 1.0 
      762.9446010000      5715.5278197986
p   1 1.0 
      317.8935840000      1913.3406184205
p   1 1.0 
      132.4556600000       640.5134283167
p   1 1.0 
       55.1898580000       214.4194529751
p   1 1.0 
       22.9957740000        71.7794502225
p   1 1.0 
        9.5815730000        24.0290224861
p   1 1.0 
        3.9923220000         8.0439996005
p   1 1.0 
        1.6634670000         2.6928231053
p   1 1.0 
        0.6931110000         0.9014540144
p   1 1.0 
        0.2887960000         0.3017720791
p   1 1.0 
        0.1203320000         0.1010221266
p   1 1.0 
        0.0501380000         0.0338180721
d   7 1.0 
    41049.8202270000     53262.0337640016
    16419.9280910000     26338.4031025142
     6567.9712360000     29332.4246479962
     2627.1884950000     27101.6066256769
     1050.8753980000     28990.3214062957
      420.3501590000     26289.6282344813
      168.1400640000     17820.8132210096
d   1 1.0 
       67.2560250000      4502.9764563892
d   1 1.0 
       26.9024100000       905.9509006942
d   1 1.0 
       10.7609640000       182.2676717095
d   1 1.0 
        4.3043860000        36.6703201328
d   1 1.0 
        1.7217540000         7.3776748265
d   1 1.0 
        0.6887020000         1.4843111023
d   1 1.0 
        0.2754810000         0.2986279634
d   1 1.0 
        0.1101920000         0.0600803838
d   1 1.0 
        0.0440770000         0.0120876293
f   6 1.0 
     4391.9602590000     58042.2322349557
     1689.2154840000     50234.6786083959
      649.6982630000     55932.1636963999
      249.8839470000     54589.9728655915
       96.1092110000     39385.8448814677
       36.9650810000     15829.5183325708
f   1 1.0 
       14.2173390000      2237.9031973610
f   1 1.0 
        5.4682070000       260.7061095750
f   1 1.0 
        2.1031570000        30.3711607432
f   1 1.0 
        0.8089060000         3.5381049160
f   1 1.0 
        0.3111180000         0.4121749941
f   1 1.0 
        0.1196610000         0.0480168308

  2 0
s   6 1.0 
    27032.3826310000         1.4645050749
     4052.3871392000         1.8244031008
      922.3272271000         2.8547160967
      261.2407098900         4.3654874290
       85.3546413500         5.8940772662
       31.0350352400         6.2963020147
s   1 1.0 
       12.2608607300         4.6698272139
s   1 1.0 
        4.9987076000         2.3826123703
s   1 1.0 
        1.1703108200         0.8019291632
s   1 1.0 
        0.4647474100        -0.4011648063
s   1 1.0 
        0.1850453600         0.2010799377
p   4 1.0 
       63.2749548000         3.0898340730
       14.6270493800         3.3923831935
        4.4501223500         2.9482801524
        1.5275799600         1.7113350234
p   1 1.0 
        0.5293511800         0.6436057935
p   1 1.0 
        0.1747842100         0.1610897223
d   1 1.0 
        2.3140000000        12.3767310624
d   1 1.0 
        0.6450000000         1.3234257612
f   1 1.0 
        1.4280000000        12.7097950062

  3 0
s   6 1.0 
    27032.3826310000         1.4645050749
     4052.3871392000         1.8244031008
      922.3272271000         2.8547160967
      261.2407098900         4.3654874290
       85.3546413500         5.8940772662
       31.0350352400         6.2963020147
s   1 1.0 
       12.2608607300         4.6698272139
s   1 1.0 
        4.9987076000         2.3826123703
s   1 1.0 
        1.1703108200         0.8019291632
s   1 1.0 
        0.4647474100        -0.4011648063
s   1 1.0 
        0.1850453600         0.2010799377
p   4 1.0 
       63.2749548000         3.0898340730
       14.6270493800         3.3923831935
        4.4501223500         2.9482801524
        1.5275799600         1.7113350234
p   1 1.0 
        0.5293511800         0.6436057935
p   1 1.0 
        0.1747842100         0.1610897223
d   1 1.0 
        2.3140000000        12.3767310624
d   1 1.0 
        0.6450000000         1.3234257612
f   1 1.0 
        1.4280000000        12.7097950062

[5D]
[7F]
[9G]
[MO]
 Sym=     1a
 Ene= -4.26109450998615E+03
 Spin= Alpha
 Occup= 2.000000
  1       0.084983996821
  2       0.065169487143
  3       0.111711716364
  4       0.177550207251
  5       0.264431437303
  6       0.303181849739
  7       0.192924018242
  8       0.032220395076
  9       0.000869266335
 10      -0.000612305858
 11       0.000447532493
 12      -0.000332406913
 13       0.000237051802
 14      -0.000160546156
 15       0.000107923447
 16      -0.000073569924
 17       0.000050020023
 18      -0.000031661693
 19       0.000009586964
 20      -0.000004876001
 21       0.000001383598
 22      -0.000000001277
 23       0.000000000419
 24       0.000000013318
 25       0.000000003314
 26      -0.000000000025
 27      -0.000000033852
 28       0.000000001725
 29       0.000000000022
 30      -0.000000017602
 31      -0.000000000013
 32      -0.000000000057
 33       0.000000000090
 34       0.000000000463
 35       0.000000000100
 36      -0.000000004665
 37      -0.000000000994
 38      -0.000000000160
 39       0.000000010043
 40       0.000000001469
 41       0.000000000266
 42      -0.000000014816
 43      -0.000000002878
 44      -0.000000000388
 45       0.000000029130
 46       0.000000006876
 47       0.000000000340
 48      -0.000000069980
 49      -0.000000020261
 50       0.000000000826
 51       0.000000207414
 52       0.000000046738
 53      -0.000000003856
 54      -0.000000479771
 55      -0.000000131901
 56      -0.000000000025
 57       0.000001346709
 58       0.000000008328
 59       0.000000000278
 60      -0.000000084842
 61       0.000000018309
 62      -0.000000000199
 63      -0.000000000090
 64       0.000000029509
 65      -0.000000003864
 66      -0.000000040495
 67       0.000000000023
 68       0.000000000227
 69      -0.000000069464
 70       0.000000009098
 71      -0.000000019264
 72      -0.000000000251
 73       0.000000000158
 74      -0.000000035708
 75       0.000000004674
 76       0.000000063839
 77       0.000000000397
 78      -0.000000000452
 79       0.000000113914
 80      -0.000000014914
 81      -0.000000141203
 82      -0.000000000718
 83       0.000000000972
 84      -0.000000250339
 85       0.000000032776
 86       0.000000266839
 87       0.000000001221
 88      -0.000000001821
 89       0.000000471700
 90      -0.000000061758
 91      -0.000000362326
 92      -0.000000001003
 93       0.000000002386
 94      -0.000000633879
 95       0.000000082993
 96       0.000000093323
 97      -0.000000002489
 98      -0.000000000178
 99       0.000000135433
100      -0.000000017747
101       0.000001589976
102       0.000000018798
103      -0.000000010663
104       0.000002926078
105      -0.000000383235
106      -0.000000357950
107      -0.000000002260
108       0.000000002250
109      -0.000000638874
110       0.000000083671
111       0.000000004923
112      -0.000000000186
113      -0.000000000014
114       0.000000006374
115      -0.000000000832
116       0.000000000754
117      -0.000000000153
118      -0.000000013339
119       0.000000000508
120       0.000000000027
121      -0.000000017242
122       0.000000002251
123      -0.000000002037
124       0.000000000428
125       0.000000029046
126      -0.000000001112
127      -0.000000000049
128       0.000000037512
129      -0.000000004898
130       0.000000004430
131      -0.000000000942
132      -0.000000057474
133       0.000000002207
134       0.000000000078
135      -0.000000074172
136       0.000000009685
137      -0.000000008755
138       0.000000001887
139       0.000000094690
140      -0.000000003689
141      -0.000000000106
142       0.000000121862
143      -0.000000015912
144       0.000000014378
145      -0.000000003125
146       0.000000038927
147      -0.000000001079
148      -0.000000000413
149       0.000000052968
150      -0.000000006920
151       0.000000006343
152      -0.000000000906
153      -0.000000355470
154       0.000000012780
155       0.000000002315
156      -0.000000464900
157       0.000000060721
158      -0.000000055346
159       0.000000009479
160      -0.000000014439
161       0.000000065969
162      -0.000000130308
163       0.000000717104
164       0.000001858419
165       0.000005304451
166       0.000000002724
167       0.000000014364
168      -0.000000018230
169      -0.000000040543
170      -0.000000633021
171      -0.000000008511
172       0.000000122216
173       0.000001809893
174      -0.000000039956
175       0.000000037056
176      -0.000000001904
177      -0.000000024642
178       0.000000061014
179      -0.000000005574
180       0.000000153699
181      -0.000000000745
182      -0.000000043871
183       0.000000285785
184      -0.000000033201
185      -0.000000016928
186      -0.000000000164
187      -0.000000011178
188      -0.000000022522
189       0.000000001660
190       0.000000002227
191       0.000000025102
192      -0.000000014438
193       0.000000065910
194      -0.000000130033
195       0.000000716296
196       0.000001860848
197       0.000005317554
198       0.000000000913
199      -0.000000013625
200      -0.000000018416
201       0.000000041952
202       0.000000632616
203      -0.000000006142
204      -0.000000114023
205      -0.000001813653
206      -0.000000046201
207       0.000000037419
208       0.000000001283
209       0.000000024344
210       0.000000060860
211      -0.000000010393
212       0.000000153204
213       0.000000004779
214       0.000000041215
215       0.000000283482
216      -0.000000041303
217      -0.000000017162
218       0.000000001384
219       0.000000012267
220      -0.000000022451
221       0.000000004227
222      -0.000000007819
223      -0.000000025379
 Sym=     1a
 Ene= -8.05042336160288E+02
 Spin= Alpha
 Occup= 2.000000
  1      -0.035877119449
  2      -0.029713896974
  3      -0.049764908697
  4      -0.086683266227
  5      -0.138726977919
  6      -0.177777748130
  7      -0.072230050850
  8       0.369142511882
  9       0.610969600120
 10       0.169947097580
 11      -0.002092667578
 12       0.001803937677
 13      -0.000968194050
 14       0.000503000984
 15      -0.000284073647
 16       0.000183462827
 17      -0.000121984558
 18       0.000076221687
 19      -0.000023111024
 20       0.000011702722
 21      -0.000003315525
 22       0.000000115638
 23       0.000000001407
 24      -0.000001179738
 25       0.000000182801
 26       0.000000003121
 27      -0.000001864339
 28       0.000000325252
 29       0.000000004446
 30      -0.000003317898
 31       0.000000235331
 32       0.000000005211
 33      -0.000002399277
 34       0.000000030484
 35       0.000000001234
 36      -0.000000310430
 37       0.000000009199
 38      -0.000000000046
 39      -0.000000093950
 40      -0.000000004749
 41      -0.000000000610
 42       0.000000048081
 43       0.000000007077
 44       0.000000001010
 45      -0.000000071577
 46      -0.000000019466
 47      -0.000000000909
 48       0.000000198144
 49       0.000000050312
 50      -0.000000001879
 51      -0.000000514948
 52      -0.000000108902
 53       0.000000009658
 54       0.000001118344
 55       0.000000312847
 56      -0.000000000242
 57      -0.000003194355
 58      -0.000000019596
 59      -0.000000000649
 60       0.000000199648
 61       0.000001646622
 62      -0.000000017469
 63      -0.000000008242
 64       0.000002658129
 65      -0.000000348061
 66       0.000001881306
 67       0.000000000819
 68      -0.000000011218
 69       0.000003246503
 70      -0.000000425133
 71      -0.000000379764
 72       0.000000002421
 73       0.000000001997
 74      -0.000000629238
 75       0.000000082401
 76       0.000000199478
 77      -0.000000000858
 78      -0.000000001014
 79       0.000000334635
 80      -0.000000043830
 81       0.000000105742
 82       0.000000001169
 83      -0.000000000910
 84       0.000000193921
 85      -0.000000025377
 86      -0.000000553673
 87      -0.000000002859
 88       0.000000003884
 89      -0.000000982096
 90       0.000000128574
 91       0.000000708421
 92       0.000000001863
 93      -0.000000004802
 94       0.000001238472
 95      -0.000000162137
 96      -0.000000179454
 97       0.000000005836
 98       0.000000000153
 99      -0.000000249776
100       0.000000032740
101      -0.000003801127
102      -0.000000044586
103       0.000000025490
104      -0.000006991758
105       0.000000915724
106       0.000000856843
107       0.000000005360
108      -0.000000005389
109       0.000001528802
110      -0.000000200220
111       0.000000133270
112      -0.000000004848
113      -0.000000000945
114       0.000000173974
115      -0.000000022724
116       0.000000020733
117      -0.000000003439
118      -0.000000026936
119       0.000000000944
120       0.000000000372
121      -0.000000035463
122       0.000000004634
123      -0.000000004274
124       0.000000000464
125      -0.000000041957
126       0.000000001638
127      -0.000000000118
128      -0.000000053907
129       0.000000007037
130      -0.000000006315
131       0.000000001604
132       0.000000109432
133      -0.000000004235
134       0.000000000047
135       0.000000140941
136      -0.000000018401
137       0.000000016583
138      -0.000000003845
139      -0.000000193215
140       0.000000007569
141      -0.000000000065
142      -0.000000248287
143       0.000000032417
144      -0.000000029219
145       0.000000006741
146      -0.000000101663
147       0.000000002917
148       0.000000001002
149      -0.000000137689
150       0.000000017989
151      -0.000000016471
152       0.000000002439
153       0.000000846209
154      -0.000000030432
155      -0.000000005463
156       0.000001106639
157      -0.000000144539
158       0.000000131732
159      -0.000000022624
160       0.000000030146
161      -0.000000143508
162       0.000000282921
163      -0.000001622307
164      -0.000004358052
165      -0.000012642809
166      -0.000000005080
167      -0.000000010648
168       0.000000044758
169       0.000000093117
170       0.000001445165
171       0.000000013729
172      -0.000000291343
173      -0.000004322371
174       0.000000089998
175      -0.000000093468
176       0.000000004594
177       0.000000059350
178      -0.000000154117
179       0.000000014367
180      -0.000000329393
181       0.000000001033
182       0.000000091103
183      -0.000000616175
184       0.000000071929
185       0.000000048852
186       0.000000002002
187       0.000000056428
188       0.000000064616
189      -0.000000005199
190      -0.000000011815
191      -0.000000099406
192       0.000000030154
193      -0.000000143403
194       0.000000282302
195      -0.000001620020
196      -0.000004363074
197      -0.000012673709
198      -0.000000003842
199       0.000000008843
200       0.000000045129
201      -0.000000095164
202      -0.000001443616
203       0.000000008208
204       0.000000272830
205       0.000004331260
206       0.000000104943
207      -0.000000094294
208      -0.000000003079
209      -0.000000058567
210      -0.000000153664
211       0.000000025955
212      -0.000000327967
213      -0.000000010408
214      -0.000000085158
215      -0.000000610678
216       0.000000088619
217       0.000000049172
218      -0.000000005582
219      -0.000000059171
220       0.000000064089
221      -0.000000011642
222       0.000000027715
223       0.000000099689
 Sym=     1a
 Ene= -6.75699463779893E+02
 Spin= Alpha
 Occup= 2.000000
  1      -0.000000286509
  2      -0.000000238458
  3      -0.000000395598
  4      -0.000000702259
  5      -0.000001097774
  6      -0.000001482774
  7      -0.000000435565
  8       0.000003145985
  9       0.000005153524
 10       0.000000402228
 11       0.000000361230
 12      -0.000001255748
 13       0.000001299742
 14      -0.000000517164
 15      -0.000003947343
 16       0.000019051819
 17      -0.000044620431
 18       0.000061597592
 19      -0.000082349857
 20       0.000021538454
 21      -0.000004860362
 22      -0.017310715102
 23       0.000827976695
 24       0.177296357362
 25      -0.029467799384
 26       0.001409453559
 27       0.301809223817
 28      -0.044405954578
 29       0.002123950439
 30       0.454805821071
 31      -0.023357109105
 32       0.001117176367
 33       0.239223528602
 34      -0.000783475415
 35       0.000037475652
 36       0.008024356984
 37      -0.000425365567
 38       0.000020341823
 39       0.004356592110
 40       0.000294602735
 41      -0.000014084374
 42      -0.003017317062
 43      -0.000181337219
 44       0.000008661886
 45       0.001857248248
 46       0.000109589599
 47      -0.000005224013
 48      -0.001122404964
 49      -0.000066106744
 50       0.000003156928
 51       0.000677062013
 52       0.000038400517
 53      -0.000001902029
 54      -0.000393341727
 55      -0.000020581145
 56       0.000001196988
 57       0.000210933999
 58       0.000004842857
 59      -0.000000236528
 60      -0.000049603804
 61      -0.000001384417
 62       0.000000263255
 63      -0.000000005056
 64       0.000000265217
 65      -0.000000036015
 66      -0.000000389268
 67       0.000000051648
 68      -0.000000000356
 69      -0.000000150448
 70       0.000000019455
 71       0.000000492499
 72       0.000000034425
 73      -0.000000004313
 74       0.000001193797
 75      -0.000000156529
 76      -0.000000964398
 77      -0.000000037958
 78       0.000000007088
 79      -0.000002041470
 80       0.000000267569
 81       0.000001881841
 82       0.000000065957
 83      -0.000000013747
 84       0.000003902157
 85      -0.000000511382
 86      -0.000003728253
 87      -0.000000134138
 88       0.000000028081
 89      -0.000007766169
 90       0.000001017715
 91       0.000006752060
 92       0.000000292304
 93      -0.000000057588
 94       0.000014564427
 95      -0.000001908369
 96      -0.000007173538
 97      -0.000000598833
 98       0.000000090440
 99      -0.000018383356
100       0.000002408493
101       0.000008455015
102       0.000001039025
103      -0.000000130871
104       0.000025024290
105      -0.000003279230
106      -0.000000420541
107      -0.000000018557
108       0.000000002733
109      -0.000000910073
110       0.000000119333
111       0.000001432808
112      -0.000000064991
113      -0.000000006368
114       0.000001788870
115      -0.000000233621
116       0.000000212449
117      -0.000000038559
118      -0.000000547564
119       0.000000028856
120       0.000000001344
121      -0.000000658198
122       0.000000085935
123      -0.000000077930
124       0.000000015230
125      -0.000000398182
126       0.000000008082
127       0.000000004761
128      -0.000000560405
129       0.000000073252
130      -0.000000067226
131       0.000000009085
132       0.000001850331
133      -0.000000061266
134      -0.000000015544
135       0.000002454061
136      -0.000000320631
137       0.000000293090
138      -0.000000045517
139      -0.000005110656
140       0.000000175438
141       0.000000041190
142      -0.000006738803
143       0.000000880268
144      -0.000000804233
145       0.000000127716
146       0.000014008530
147      -0.000000474432
148      -0.000000083598
149       0.000018499621
150      -0.000002416152
151       0.000002199705
152      -0.000000391625
153      -0.000019387320
154       0.000000652791
155       0.000000082681
156      -0.000025613042
157       0.000003345531
158      -0.000003037715
159       0.000000581694
160      -0.000000182520
161       0.000000778652
162      -0.000001218142
163       0.000003724184
164       0.000022309055
165       0.000044113746
166       0.000000208345
167      -0.000001029322
168      -0.000002814158
169      -0.000001806834
170      -0.000005702260
171       0.000014642380
172       0.000003204485
173       0.000006236891
174      -0.000028555709
175       0.000000436403
176      -0.000000049900
177      -0.000000744873
178       0.000000746786
179      -0.000000024457
180      -0.000000179195
181       0.000000363550
182       0.000008327306
183      -0.000002226129
184      -0.000000529166
185      -0.000000218180
186      -0.000000161630
187      -0.000002515506
188      -0.000000320014
189       0.000000012096
190       0.000000643429
191       0.000003440205
192      -0.000000181531
193       0.000000773527
194      -0.000001206612
195       0.000003667075
196       0.000022199424
197       0.000043810380
198       0.000000341529
199       0.000001011617
200      -0.000002811915
201      -0.000001060466
202       0.000005790919
203       0.000014692153
204       0.000002385270
205      -0.000006429529
206      -0.000028644715
207       0.000000441325
208       0.000000046398
209       0.000000736825
210       0.000000730814
211      -0.000000168722
212      -0.000000249245
213      -0.000000717118
214      -0.000008293932
215      -0.000002076706
216       0.000001093073
217      -0.000000184864
218       0.000000167226
219       0.000002532335
220      -0.000000268307
221       0.000000063939
222      -0.000000715550
223      -0.000003438408
 Sym=     1a
 Ene= -6.75699390779380E+02
 Spin= Alpha
 Occup= 2.000000
  1       0.000000000000
  2       0.000000000000
  3       0.000000000000
  4       0.000000000000
  5       0.000000000001
  6       0.000000000000
  7       0.000000000000
  8      -0.000000000000
  9      -0.000000000003
 10       0.000000000002
 11      -0.000000000003
 12       0.000000000003
 13      -0.000000000002
 14      -0.000000000000
 15       0.000000000002
 16      -0.000000000006
 17       0.000000000010
 18      -0.000000000012
 19       0.000000000018
 20      -0.000000000005
 21       0.000000000001
 22      -0.176919099680
 23       0.011564167995
 24      -0.017327885570
 25      -0.301167014326
 26       0.019685528326
 27      -0.029497027574
 28      -0.453838088894
 29       0.029664744575
 30      -0.044450002775
 31      -0.238714191458
 32       0.015603352141
 33      -0.023380246683
 34      -0.008007643935
 35       0.000523412906
 36      -0.000784288062
 37      -0.004346681775
 38       0.000284117192
 39      -0.000425724552
 40       0.003009737291
 41      -0.000196728940
 42       0.000294780968
 43      -0.001851319719
 44       0.000121009948
 45      -0.000181322742
 46       0.001116745239
 47      -0.000072995102
 48       0.000109376737
 49      -0.000670742374
 50       0.000043842496
 51      -0.000065694136
 52       0.000387558339
 53      -0.000025332412
 54       0.000037958405
 55      -0.000204995139
 56       0.000013399336
 57      -0.000020077723
 58       0.000050618502
 59      -0.000003308638
 60       0.000004957699
 61       0.000000226808
 62       0.000001324147
 63      -0.000000087608
 64      -0.000000131237
 65       0.000000006352
 66       0.000000045367
 67       0.000000264864
 68      -0.000000017526
 69      -0.000000026254
 70       0.000000001247
 71       0.000000026208
 72       0.000000153006
 73      -0.000000010136
 74      -0.000000015181
 75       0.000000000602
 76      -0.000000026389
 77      -0.000000154062
 78       0.000000010192
 79       0.000000015268
 80      -0.000000000751
 81       0.000000044724
 82       0.000000261114
 83      -0.000000017229
 84      -0.000000025818
 85       0.000000001722
 86      -0.000000091351
 87      -0.000000533341
 88       0.000000035100
 89       0.000000052613
 90      -0.000000004446
 91       0.000000203371
 92       0.000001187382
 93      -0.000000077812
 94      -0.000000116690
 95       0.000000013248
 96      -0.000000443806
 97      -0.000002591141
 98       0.000000169765
 99       0.000000254586
100      -0.000000029311
101       0.000000815841
102       0.000004763110
103      -0.000000314207
104      -0.000000470839
105       0.000000032259
106      -0.000000012614
107      -0.000000073620
108       0.000000005207
109       0.000000007746
110       0.000000003053
111      -0.000000147743
112      -0.000000615066
113       0.000000041199
114      -0.000000174852
115       0.000000029376
116       0.000002233818
117      -0.000000442306
118       0.000000072091
119       0.000000299830
120      -0.000000020074
121       0.000000079733
122      -0.000000013538
123      -0.000001043834
124       0.000000206675
125      -0.000000000921
126      -0.000000003133
127       0.000000000191
128       0.000000012410
129      -0.000000001724
130      -0.000000097618
131       0.000000019351
132      -0.000000095567
133      -0.000000399450
134       0.000000026813
135      -0.000000143873
136       0.000000023432
137       0.000001699269
138      -0.000000336503
139       0.000000307027
140       0.000001282252
141      -0.000000086153
142       0.000000441868
143      -0.000000073119
144      -0.000005291856
145       0.000001047822
146      -0.000001007383
147      -0.000004206465
148       0.000000282697
149      -0.000001435850
150       0.000000238502
151       0.000017248368
152      -0.000003415201
153       0.000001547337
154       0.000006460538
155      -0.000000433861
156       0.000002194222
157      -0.000000362745
158      -0.000026398394
159       0.000005227151
160      -0.000000000005
161       0.000000000008
162      -0.000000000006
163       0.000000000003
164      -0.000000000009
165      -0.000000000014
166       0.000002534875
167      -0.000000165689
168       0.000000248272
169      -0.000014654291
170       0.000000957870
171      -0.000001435276
172       0.000029018911
173      -0.000001896799
174       0.000002842182
175      -0.000000008162
176      -0.000000044937
177       0.000000044625
178       0.000000060077
179       0.000000421398
180      -0.000000126918
181      -0.000000786638
182      -0.000000649516
183      -0.000000858934
184      -0.000007105236
185      -0.000000064928
186      -0.000000269961
187       0.000000025606
188      -0.000000073459
189       0.000000060980
190       0.000001006581
191      -0.000000193393
192      -0.000000000001
193       0.000000000002
194      -0.000000000001
195       0.000000000001
196       0.000000000003
197      -0.000000000007
198       0.000002534147
199      -0.000000165643
200       0.000000248201
201      -0.000014672542
202       0.000000959062
203      -0.000001437066
204       0.000029054775
205      -0.000001899140
206       0.000002845696
207      -0.000000008437
208      -0.000000051951
209      -0.000000037985
210      -0.000000050168
211      -0.000000419542
212      -0.000000122558
213      -0.000000669980
214       0.000000743962
215       0.000001000729
216       0.000007078742
217      -0.000000066355
218      -0.000000276934
219       0.000000010333
220      -0.000000088438
221      -0.000000038500
222       0.000001027343
223      -0.000000209902
 Sym=     1a
 Ene= -6.75696210651818E+02
 Spin= Alpha
 Occup= 2.000000
  1       0.000000001866
  2       0.000000001559
  3       0.000000002564
  4       0.000000004630
  5       0.000000007069
  6       0.000000009869
  7       0.000000002192
  8      -0.000000019548
  9      -0.000000040117
 10       0.000000010265
 11      -0.000000013596
 12       0.000000025386
 13      -0.000000035015
 14       0.000000028016
 15       0.000000059162
 16      -0.000000353575
 17       0.000000667761
 18      -0.000000490176
 19      -0.000000023087
 20      -0.000000001653
 21       0.000000002298
 22       0.011589882388
 23       0.177764185966
 24       0.000301442002
 25       0.019729341599
 26       0.302606206807
 27       0.000513141591
 28       0.029730735211
 29       0.456006348598
 30       0.000773268929
 31       0.015638221524
 32       0.239857110352
 33       0.000406734345
 34       0.000523203865
 35       0.008024838989
 36       0.000013609828
 37       0.000286813609
 38       0.004399106461
 39       0.000007456231
 40      -0.000200619328
 41      -0.003077064704
 42      -0.000005211402
 43       0.000127091243
 44       0.001949292603
 45       0.000003294107
 46      -0.000082817997
 47      -0.001270225717
 48      -0.000002136427