[Molden Format]
[Title]
 Molden file created by orca_2mkl for BaseName=/home/nikolayandreadi/CCact/UO2Cl2

[Atoms] AU
U    1  92          5.3704675020       -19.3043914964       -40.9659876880 
O    2   8          4.9317127780       -22.5527645802       -40.7491038196 
O    3   8          5.3572488677       -16.0252102075       -40.7415657021 
Cl   4  17          9.9684565345       -19.5978508472       -39.7639933655 
Cl   5  17          4.3189482921       -19.2686492163       -45.6152393213 
[GTO]
  1 0
s   9 1.0 
 58915269.2040619999     15878.5363952950
 26779667.8200279996     -5784.7557541551
 12172576.2818310000      9027.3946318877
  5532989.2190140001       325.6868040056
  2514995.0995519999      4208.1243710139
  1143179.5907050001      1939.1491289669
   519627.0866840000      2669.4311026285
   236194.1303110000      2005.5172738201
   107360.9683230000      2058.9530636601
s   1 1.0 
    48800.4401470000      2340.0648682401
s   1 1.0 
    22182.0182490000      1295.4208592531
s   1 1.0 
    10082.7355680000       717.1233692609
s   1 1.0 
     4583.0616220000       396.9875296292
s   1 1.0 
     2083.2098280000       219.7656713216
s   1 1.0 
      946.9135580000       121.6586080998
s   1 1.0 
      430.4152540000        67.3481752053
s   1 1.0 
      195.6432970000        37.2828258248
s   1 1.0 
       88.9287710000        20.6391501245
s   1 1.0 
       40.4221690000        11.4254891526
s   1 1.0 
       18.3737130000         6.3249600754
s   1 1.0 
        8.3516880000         3.5013924304
s   1 1.0 
        3.7962220000         1.9383124866
s   1 1.0 
        1.7255550000         1.0730172334
s   1 1.0 
        0.7843430000         0.5940043302
s   1 1.0 
        0.3565200000         0.3288311987
s   1 1.0 
        0.1620540000         0.1820350044
s   1 1.0 
        0.0736610000         0.1007716339
s   1 1.0 
        0.0334820000         0.0557851540
s   1 1.0 
        0.0152190000         0.0308815919
p   8 1.0 
   839813.6669700000    124700.6825327761
   349922.3612380000     10799.0830937165
   145800.9838490000     36359.2991195727
    60750.4099370000     18163.2607860982
    25312.6708070000     17573.6487977577
    10546.9461700000     14195.6918408552
     4394.5609040000     13322.9302572221
     1831.0670430000     12107.7084625556
p   1 1.0 
      762.9446010000      5715.5278197986
p   1 1.0 
      317.8935840000      1913.3406184205
p   1 1.0 
      132.4556600000       640.5134283167
p   1 1.0 
       55.1898580000       214.4194529751
p   1 1.0 
       22.9957740000        71.7794502225
p   1 1.0 
        9.5815730000        24.0290224861
p   1 1.0 
        3.9923220000         8.0439996005
p   1 1.0 
        1.6634670000         2.6928231053
p   1 1.0 
        0.6931110000         0.9014540144
p   1 1.0 
        0.2887960000         0.3017720791
p   1 1.0 
        0.1203320000         0.1010221266
p   1 1.0 
        0.0501380000         0.0338180721
d   7 1.0 
    41049.8202270000     53262.0337640016
    16419.9280910000     26338.4031025142
     6567.9712360000     29332.4246479962
     2627.1884950000     27101.6066256769
     1050.8753980000     28990.3214062957
      420.3501590000     26289.6282344813
      168.1400640000     17820.8132210096
d   1 1.0 
       67.2560250000      4502.9764563892
d   1 1.0 
       26.9024100000       905.9509006942
d   1 1.0 
       10.7609640000       182.2676717095
d   1 1.0 
        4.3043860000        36.6703201328
d   1 1.0 
        1.7217540000         7.3776748265
d   1 1.0 
        0.6887020000         1.4843111023
d   1 1.0 
        0.2754810000         0.2986279634
d   1 1.0 
        0.1101920000         0.0600803838
d   1 1.0 
        0.0440770000         0.0120876293
f   6 1.0 
     4391.9602590000     58042.2322349557
     1689.2154840000     50234.6786083959
      649.6982630000     55932.1636963999
      249.8839470000     54589.9728655915
       96.1092110000     39385.8448814677
       36.9650810000     15829.5183325708
f   1 1.0 
       14.2173390000      2237.9031973610
f   1 1.0 
        5.4682070000       260.7061095750
f   1 1.0 
        2.1031570000        30.3711607432
f   1 1.0 
        0.8089060000         3.5381049160
f   1 1.0 
        0.3111180000         0.4121749941
f   1 1.0 
        0.1196610000         0.0480168308

  2 0
s   6 1.0 
    27032.3826310000         1.4645050749
     4052.3871392000         1.8244031008
      922.3272271000         2.8547160967
      261.2407098900         4.3654874290
       85.3546413500         5.8940772662
       31.0350352400         6.2963020147
s   1 1.0 
       12.2608607300         4.6698272139
s   1 1.0 
        4.9987076000         2.3826123703
s   1 1.0 
        1.1703108200         0.8019291632
s   1 1.0 
        0.4647474100        -0.4011648063
s   1 1.0 
        0.1850453600         0.2010799377
p   4 1.0 
       63.2749548000         3.0898340730
       14.6270493800         3.3923831935
        4.4501223500         2.9482801524
        1.5275799600         1.7113350234
p   1 1.0 
        0.5293511800         0.6436057935
p   1 1.0 
        0.1747842100         0.1610897223
d   1 1.0 
        2.3140000000        12.3767310624
d   1 1.0 
        0.6450000000         1.3234257612
f   1 1.0 
        1.4280000000        12.7097950062

  3 0
s   6 1.0 
    27032.3826310000         1.4645050749
     4052.3871392000         1.8244031008
      922.3272271000         2.8547160967
      261.2407098900         4.3654874290
       85.3546413500         5.8940772662
       31.0350352400         6.2963020147
s   1 1.0 
       12.2608607300         4.6698272139
s   1 1.0 
        4.9987076000         2.3826123703
s   1 1.0 
        1.1703108200         0.8019291632
s   1 1.0 
        0.4647474100        -0.4011648063
s   1 1.0 
        0.1850453600         0.2010799377
p   4 1.0 
       63.2749548000         3.0898340730
       14.6270493800         3.3923831935
        4.4501223500         2.9482801524
        1.5275799600         1.7113350234
p   1 1.0 
        0.5293511800         0.6436057935
p   1 1.0 
        0.1747842100         0.1610897223
d   1 1.0 
        2.3140000000        12.3767310624
d   1 1.0 
        0.6450000000         1.3234257612
f   1 1.0 
        1.4280000000        12.7097950062

  4 0
s   7 1.0 
    69507.9909450000         4.1142286333
    10426.1568800000         4.2286655222
     2373.2334061000         5.8493829067
      671.5642007100         8.3358677251
      218.4199979000        10.0089622684
       77.5722497100         8.2783277553
       28.8888152800         2.9822029766
s   1 1.0 
      127.1052718500        26.9794296956
s   1 1.0 
       39.3395829600        11.1952141621
s   1 1.0 
        7.6740680000         3.2860890225
s   1 1.0 
        3.8745627600        -1.9682357562
s   1 1.0 
        1.8385832600         1.1253110111
s   1 1.0 
        0.5022905800        -0.4252324193
s   1 1.0 
        0.1796272300         0.1966478587
p   6 1.0 
      666.5042328400        13.1758105786
      157.6424169000        16.0544655669
       50.2625209800        17.4320614645
       18.5360781100        14.3789566857
        7.2940532800         7.6571902731
        2.9433249000         1.9874071930
p   1 1.0 
        1.0404970800         1.4979287975
p   1 1.0 
        0.3845641500        -0.4316692201
p   1 1.0 
        0.1306964300         0.1120133392
d   2 1.0 
        4.6100000000         7.5524217504
        1.0110000000         2.6539585854
d   1 1.0 
        0.3390000000         0.4293579962
f   1 1.0 
        0.7060000000         2.6050175686

  5 0
s   7 1.0 
    69507.9909450000         4.1142286333
    10426.1568800000         4.2286655222
     2373.2334061000         5.8493829067
      671.5642007100         8.3358677251
      218.4199979000        10.0089622684
       77.5722497100         8.2783277553
       28.8888152800         2.9822029766
s   1 1.0 
      127.1052718500        26.9794296956
s   1 1.0 
       39.3395829600        11.1952141621
s   1 1.0 
        7.6740680000         3.2860890225
s   1 1.0 
        3.8745627600        -1.9682357562
s   1 1.0 
        1.8385832600         1.1253110111
s   1 1.0 
        0.5022905800        -0.4252324193
s   1 1.0 
        0.1796272300         0.1966478587
p   6 1.0 
      666.5042328400        13.1758105786
      157.6424169000        16.0544655669
       50.2625209800        17.4320614645
       18.5360781100        14.3789566857
        7.2940532800         7.6571902731
        2.9433249000         1.9874071930
p   1 1.0 
        1.0404970800         1.4979287975
p   1 1.0 
        0.3845641500        -0.4316692201
p   1 1.0 
        0.1306964300         0.1120133392
d   2 1.0 
        4.6100000000         7.5524217504
        1.0110000000         2.6539585854
d   1 1.0 
        0.3390000000         0.4293579962
f   1 1.0 
        0.7060000000         2.6050175686

[5D]
[9G]
[MO]
 Sym=     1a
 Ene= -4.26064695185997E+03
 Spin= Alpha
 Occup= 2.000000
  1       0.084983970442
  2       0.065169463227
  3       0.111711680217
  4       0.177550138105
  5       0.264431349281
  6       0.303181726229
  7       0.192924280240
  8       0.032220560685
  9       0.000869348015
 10      -0.000612512765
 11       0.000447818976
 12      -0.000332847188
 13       0.000237774367
 14      -0.000161697629
 15       0.000109760366
 16      -0.000076450028
 17       0.000054017689
 18      -0.000035086250
 19       0.000011202315
 20      -0.000005066963
 21       0.000001365605
 22      -0.000000097220
 23       0.000000006749
 24       0.000000093799
 25       0.000000003016
 26      -0.000000000249
 27      -0.000000002686
 28      -0.000000009982
 29       0.000000000536
 30       0.000000009747
 31       0.000000019352
 32      -0.000000001116
 33      -0.000000018677
 34      -0.000000037328
 35       0.000000002163
 36       0.000000036056
 37       0.000000064313
 38      -0.000000003723
 39      -0.000000062131
 40      -0.000000107333
 41       0.000000006156
 42       0.000000103670
 43       0.000000176498
 44      -0.000000009959
 45      -0.000000170464
 46      -0.000000293010
 47       0.000000015861
 48       0.000000282957
 49       0.000000477652
 50      -0.000000022235
 51      -0.000000461154
 52      -0.000000574657
 53       0.000000017948
 54       0.000000555313
 55       0.000000600115
 56       0.000000006620
 57      -0.000000584694
 58       0.000000162918
 59      -0.000000012642
 60      -0.000000157288
 61       0.000000006990
 62       0.000000006135
 63      -0.000000000406
 64       0.000000011625
 65      -0.000000001519
 66      -0.000000031614
 67      -0.000000013828
 68       0.000000000795
 69      -0.000000053393
 70       0.000000006912
 71      -0.000000015741
 72       0.000000035765
 73      -0.000000001683
 74      -0.000000029286
 75       0.000000004063
 76       0.000000045876
 77      -0.000000060050
 78       0.000000002643
 79       0.000000082579
 80      -0.000000011244
 81      -0.000000099852
 82       0.000000108039
 83      -0.000000004635
 84      -0.000000178288
 85       0.000000024146
 86       0.000000176760
 87      -0.000000200130
 88       0.000000008577
 89       0.000000316060
 90      -0.000000042885
 91      -0.000000127220
 92       0.000000366439
 93      -0.000000016120
 94      -0.000000240844
 95       0.000000034247
 96      -0.000000394052
 97      -0.000000560966
 98       0.000000026522
 99      -0.000000643801
100       0.000000080888
101       0.000002187350
102       0.000000381645
103      -0.000000027721
104       0.000003732611
105      -0.000000490144
106      -0.000000392344
107       0.000000039971
108      -0.000000000781
109      -0.000000676022
110       0.000000088818
111      -0.000000012651
112      -0.000000006031
113       0.000000000296
114      -0.000000000999
115       0.000000000082
116      -0.000000010453
117       0.000000002034
118       0.000000038114
119       0.000000018629
120      -0.000000000901
121       0.000000002393
122      -0.000000000158
123       0.000000031094
124      -0.000000006035
125      -0.000000083670
126      -0.000000040652
127       0.000000001955
128      -0.000000005581
129       0.000000000378
130      -0.000000068468
131       0.000000013274
132       0.000000169886
133       0.000000082957
134      -0.000000003980
135       0.000000010768
136      -0.000000000681
137       0.000000138676
138      -0.000000026875
139      -0.000000340762
140      -0.000000178772
141       0.000000008396
142      -0.000000004971
143      -0.000000000837
144      -0.000000267640
145       0.000000052148
146       0.000000552664
147       0.000000389427
148      -0.000000015464
149      -0.000000125378
150       0.000000019002
151       0.000000348820
152      -0.000000072582
153      -0.000000214496
154      -0.000000323443
155       0.000000012108
156       0.000000280125
157      -0.000000037475
158       0.000000012819
159       0.000000006818
160      -0.000000022677
161       0.000000107123
162      -0.000000217159
163       0.000000941856
164       0.000002154889
165       0.000005549987
166       0.000000013213
167       0.000000090625
168      -0.000000006193
169      -0.000000118724
170      -0.000000694219
171       0.000000067601
172       0.000000225075
173       0.000001912815
174      -0.000000092918
175       0.000000014590
176      -0.000000003206
177       0.000000001269
178       0.000000025677
179      -0.000000003952
180       0.000000222654
181       0.000000022513
182       0.000000074850
183       0.000000368906
184      -0.000000130314
185      -0.000000011861
186       0.000000004673
187       0.000000062189
188      -0.000000007940
189       0.000000009722
190      -0.000000030922
191      -0.000000074811
192      -0.000000022451
193       0.000000106109
194      -0.000000215266
195       0.000000933373
196       0.000002125393
197       0.000005481620
198       0.000000000768
199      -0.000000091512
200      -0.000000007338
201      -0.000000025416
202       0.000000693581
203       0.000000071571
204      -0.000000027353
205      -0.000001912067
206      -0.000000096719
207       0.000000014925
208      -0.000000003204
209      -0.000000000234
210       0.000000025312
211      -0.000000002403
212       0.000000219263
213       0.000000012130
214      -0.000000080963
215       0.000000388153
216       0.000000029396
217      -0.000000012413
218      -0.000000003496
219      -0.000000062142
220      -0.000000011031
221      -0.000000007011
222       0.000000000119
223       0.000000082270
224       0.000000013040
225      -0.000000013984
226       0.000000011464
227      -0.000000094850
228      -0.000000206852
229      -0.000000193673
230       0.000000088458
231      -0.000000252526
232      -0.000000028652
233       0.000000001873
234      -0.000000006386
235       0.000000221553
236      -0.000000014403
237       0.000000052225
238       0.000000503912
239      -0.000000032851
240       0.000000122933
241       0.000000173720
242      -0.000000009503
243       0.000000003397
244       0.000000034139
245      -0.000000023042
246       0.000000001517
247      -0.000000025660
248       0.000000003496
249      -0.000000253324
250       0.000000228391
251      -0.000000014715
252       0.000000371743
253      -0.000000048422
254       0.000000040541
255       0.000000061951
256      -0.000000003795
257      -0.000000041240
258       0.000000005200
259       0.000000059289
260      -0.000000011362
261       0.000000012961
262      -0.000000013897
263       0.000000011389
264      -0.000000094149
265      -0.000000205045
266      -0.000000191275
267       0.000000090693
268      -0.000000251842
269       0.000000005469
270      -0.000000000465
271       0.000000029069
272      -0.000000044929
273       0.000000003231
274      -0.000000223889
275      -0.000000105455
276       0.000000007801
277      -0.000000505687
278       0.000000001813
279      -0.000000002598
280      -0.000000174841
281      -0.000000041519
282      -0.000000020510
283       0.000000001558
284       0.000000017042
285      -0.000000002170
286       0.000000463314
287       0.000000201394
288      -0.000000010948
289      -0.000000038156
290       0.000000005534
291       0.000000091479
292       0.000000050825
293      -0.000000001984
294      -0.000000014750
295       0.000000002394
296       0.000000005997
297      -0.000000000772
 Sym=     1a
 Ene= -8.04600375244536E+02
 Spin= Alpha
 Occup= 2.000000
  1       0.035877043125
  2       0.029713830125
  3       0.049764794369
  4       0.086683069304
  5       0.138726623264
  6       0.177777356850
  7       0.072230450533
  8      -0.369140269173
  9      -0.610967769985
 10      -0.169951970270
 11       0.002093612807
 12      -0.001804745440
 13       0.000970020057
 14      -0.000505973167
 15       0.000288523464
 16      -0.000190405034
 17       0.000131641732
 18      -0.000084370793
 19       0.000026999679
 20      -0.000012168242
 21       0.000003273186
 22       0.000000228043
 23      -0.000000010189
 24      -0.000000228213
 25       0.000000515390
 26      -0.000000026137
 27      -0.000000510395
 28       0.000001021033
 29      -0.000000058013
 30      -0.000001008322
 31       0.000000708347
 32      -0.000000033239
 33      -0.000000700505
 34      -0.000000098327
 35       0.000000011660
 36       0.000000092593
 37       0.000000164353
 38      -0.000000010931
 39      -0.000000159146
 40      -0.000000284421
 41       0.000000017382
 42       0.000000274778
 43       0.000000425210
 44      -0.000000024378
 45      -0.000000410715
 46      -0.000000679794
 47       0.000000036629
 48       0.000000656734
 49       0.000001127185
 50      -0.000000052659
 51      -0.000001088577
 52      -0.000001360756
 53       0.000000043552
 54       0.000001315164
 55       0.000001429013
 56       0.000000014634
 57      -0.000001392107
 58       0.000000387709
 59      -0.000000030099
 60      -0.000000374358
 61      -0.000000970485
 62      -0.000000382724
 63       0.000000029727
 64      -0.000001645497
 65       0.000000216709
 66      -0.000001679273
 67       0.000000150982
 68      -0.000000003336
 69      -0.000002891428
 70       0.000000379291
 71       0.000000390304
 72       0.000000058506
 73      -0.000000003338
 74       0.000000665623
 75      -0.000000086694
 76      -0.000000231879
 77      -0.000000089194
 78       0.000000004074
 79      -0.000000391856
 80       0.000000050451
 81      -0.000000023321
 82       0.000000202349
 83      -0.000000008552
 84      -0.000000053259
 85       0.000000008673
 86       0.000000357274
 87      -0.000000457458
 88       0.000000019571
 89       0.000000642363
 90      -0.000000087553
 91      -0.000000189254
 92       0.000000854787
 93      -0.000000037823
 94      -0.000000377476
 95       0.000000055738
 96      -0.000000977972
 97      -0.000001320226
 98       0.000000062590
 99      -0.000001601658
100       0.000000201666
101       0.000005215734
102       0.000000903215
103      -0.000000065725
104       0.000008900801
105      -0.000001168743
106      -0.000000939044
107       0.000000095409
108      -0.000000001862
109      -0.000001617998
110       0.000000212572
111       0.000000132551
112       0.000000033596
113      -0.000000002284
114       0.000000050050
115      -0.000000006438
116       0.000000135008
117      -0.000000026948
118       0.000000054942
119       0.000000045846
120      -0.000000001945
121      -0.000000021979
122       0.000000003228
123       0.000000028482
124      -0.000000005331
125      -0.000000204311
126      -0.000000112511
127       0.000000005299
128       0.000000004116
129      -0.000000001419
130      -0.000000155803
131       0.000000030184
132       0.000000389945
133       0.000000198873
134      -0.000000009420
135       0.000000013391
136      -0.000000000043
137       0.000000311014
138      -0.000000060277
139      -0.000000786629
140      -0.000000420454
141       0.000000019602
142      -0.000000001075
143      -0.000000003332
144      -0.000000611102
145       0.000000119184
146       0.000001300433
147       0.000000921987
148      -0.000000036751
149      -0.000000302585
150       0.000000045705
151       0.000000815842
152      -0.000000169722
153      -0.000000503896
154      -0.000000766005
155       0.000000028759
156       0.000000666342
157      -0.000000089123
158       0.000000035433
159       0.000000014979
160      -0.000000047561
161       0.000000235817
162      -0.000000484892
163       0.000002183803
164       0.000005100279
165       0.000013195811
166       0.000000030096
167       0.000000199226
168      -0.000000014513
169      -0.000000279538
170      -0.000001639625
171       0.000000158865
172       0.000000536139
173       0.000004560129
174      -0.000000221203
175       0.000000042008
176      -0.000000007462
177       0.000000004205
178       0.000000073436
179      -0.000000012301
180       0.000000509307
181       0.000000052706
182       0.000000173553
183       0.000000843303
184      -0.000000300663
185      -0.000000024854
186       0.000000008351
187       0.000000125716
188      -0.000000014849
189       0.000000021854
190      -0.000000062621
191      -0.000000150772
192      -0.000000047063
193       0.000000233526
194      -0.000000480571
195       0.000002164309
196       0.000005031383
197       0.000013034289
198       0.000000002648
199      -0.000000201441
200      -0.000000017181
201      -0.000000059201
202       0.000001638659
203       0.000000168277
204      -0.000000065556
205      -0.000004558397
206      -0.000000230240
207       0.000000042787
208      -0.000000007616
209      -0.000000001823
210       0.000000072901
211      -0.000000006108
212       0.000000501528
213       0.000000028606
214      -0.000000187904
215       0.000000888268
216       0.000000069774
217      -0.000000026067
218      -0.000000008169
219      -0.000000125588
220      -0.000000021877
221      -0.000000016496
222       0.000000000034
223       0.000000166536
224       0.000000018761
225      -0.000000023759
226       0.000000028709
227      -0.000000219421
228      -0.000000489634
229      -0.000000465220
230       0.000000193183
231      -0.000000624118
232      -0.000000067596
233       0.000000004418
234      -0.000000014993
235       0.000000519986
236      -0.000000033800
237       0.000000122485
238       0.000001193233
239      -0.000000077780
240       0.000000291522
241       0.000000428168
242      -0.000000023593
243       0.000000012668
244       0.000000078522
245      -0.000000052175
246       0.000000003437
247      -0.000000056392
248       0.000000007711
249      -0.000000596537
250       0.000000537301
251      -0.000000034614
252       0.000000873428
253      -0.000000113765
254       0.000000092907
255       0.000000142919
256      -0.000000008745
257      -0.000000093673
258       0.000000011802
259       0.000000134322
260      -0.000000025721
261       0.000000018652
262      -0.000000023619
263       0.000000028531
264      -0.000000217866
265      -0.000000485516
266      -0.000000459636
267       0.000000198637
268      -0.000000622177
269       0.000000012835
270      -0.000000001086
271       0.000000068596
272      -0.000000105396
273       0.000000007593
274      -0.000000525612
275      -0.000000250181
276       0.000000018507
277      -0.000001197644
278       0.000000000252
279      -0.000000005971
280      -0.000000430879
281      -0.000000093225
282      -0.000000046465
283       0.000000003577
284       0.000000040479
285      -0.000000005149
286       0.000001089465
287       0.000000473877
288      -0.000000025741
289      -0.000000090811
290       0.000000013163
291       0.000000209127
292       0.000000115915
293      -0.000000004491
294      -0.000000035467
295       0.000000005708
296       0.000000014189
297      -0.000000001819
 Sym=     1a
 Ene= -6.75256858004969E+02
 Spin= Alpha
 Occup= 2.000000
  1       0.000000001009
  2       0.000000000824
  3       0.000000001436
  4       0.000000002319
  5       0.000000004157
  6       0.000000004496
  7       0.000000003493
  8      -0.000000013836
  9      -0.000000010832
 10      -0.000000019429
 11       0.000000030052
 12      -0.000000046777
 13       0.000000082073
 14      -0.000000143918
 15       0.000000270190
 16      -0.000000543756
 17       0.000000967764
 18      -0.000001107851
 19       0.000000556233
 20      -0.000000192861
 21       0.000000048700
 22       0.123831293027
 23      -0.008227758097
 24       0.127797460687
 25       0.210796608434
 26      -0.014006019272
 27       0.217548169928
 28       0.317656167165
 29      -0.021106121500
 30       0.327830313939
 31       0.167087359874
 32      -0.011101835941
 33       0.172438961410
 34       0.005602361948
 35      -0.000372243802
 36       0.005781812393
 37       0.003047535334
 38      -0.000202481725
 39       0.003145118355
 40      -0.002116053510
 41       0.000140588425
 42      -0.002183782901
 43       0.001312043107
 44      -0.000087167002
 45       0.001353988640
 46      -0.000808751910
 47       0.000053747882
 48      -0.000834524369
 49       0.000512308360
 50      -0.000034182932
 51       0.000528515496
 52      -0.000328458442
 53       0.000022088726
 54      -0.000338789966
 55       0.000190903627
 56      -0.000011595183
 57       0.000196956666
 58      -0.000034985005
 59       0.000002146153
 60      -0.000036154153
 61      -0.000000203631
 62       0.000000015272
 63      -0.000000008230
 64       0.000000119941
 65      -0.000000018777
 66       0.000000832275
 67      -0.000000032491
 68       0.000000007449
 69      -0.000000479440
 70       0.000000055616
 71      -0.000001824390
 72       0.000000075901
 73      -0.000000023867
 74       0.000001052214
 75      -0.000000136646
 76       0.000003361741
 77      -0.000000140065
 78       0.000000044484
 79      -0.000001940538
 80       0.000000253811
 81      -0.000006253918
 82       0.000000261180
 83      -0.000000083483
 84       0.000003611503
 85      -0.000000474299
 86       0.000011871140
 87      -0.000000497388
 88       0.000000160487
 89      -0.000006860670
 90       0.000000901993
 91      -0.000022967260
 92       0.000000968029
 93      -0.000000324899
 94       0.000013311362
 95      -0.000001744434
 96       0.000041951131
 97      -0.000001754969
 98       0.000000658184
 99      -0.000024404506
100       0.000003177456
101      -0.000063965551
102       0.000002485793
103      -0.000001119716
104       0.000036965808
105      -0.000005019141
106       0.000013131480
107      -0.000000491024
108       0.000000084808
109      -0.000007547504
110       0.000000979935
111       0.000000835188
112       0.000000368455
113      -0.000000026268
114       0.000001117282
115      -0.000000148386
116      -0.000001287097
117       0.000000255952
118      -0.000000644315
119      -0.000000196357
120       0.000000006101
121      -0.000000766918
122       0.000000098631
123       0.000000943805
124      -0.000000184259
125       0.000000618828
126       0.000000094652
127       0.000000015348
128       0.000000641323
129      -0.000000076107
130      -0.000000861479
131       0.000000161105
132      -0.000000759136
133      -0.000000021814
134      -0.000000049708
135      -0.000000701022
136       0.000000072435
137       0.000001023502
138      -0.000000178656
139       0.000001157958
140      -0.000000200341
141       0.000000148445
142       0.000000844268
143      -0.000000063801
144      -0.000001465924
145       0.000000214038
146      -0.000001344321
147       0.000001282434
148      -0.000000559782
149       0.000000090255
150      -0.000000126679
151       0.000001219381
152       0.000000132152
153       0.000008556786
154      -0.000001180362
155       0.000000576088
156       0.000005827427
157      -0.000000589435
158      -0.000010019296
159       0.000001824486
160      -0.000000000230
161       0.000000000977
162      -0.000000001224
163      -0.000000019448
164      -0.000000071316
165       0.000000556577
166      -0.000000896482
167       0.000000046293
168      -0.000000923950
169       0.000004701707
170      -0.000000140136
171       0.000004838086
172      -0.000004058748
173       0.000000610890
174      -0.000004408400
175      -0.000000495534
176      -0.000000013634
177      -0.000000431924
178       0.000000232864
179      -0.000000456251
180       0.000000821033
181       0.000000274123
182       0.000004502419
183       0.000000043302
184       0.000004421032
185      -0.000000360912
186      -0.000000194831
187      -0.000000438637
188      -0.000000490628
189       0.000000081925
190       0.000000483182
191      -0.000000460323
192      -0.000000002333
193       0.000000011366
194      -0.000000023000
195       0.000000106868
196       0.000000294455
197      -0.000000173550
198      -0.000000883226
199       0.000000032392
200      -0.000000912837
201       0.000004611010
202      -0.000000036115
203       0.000004771402
204      -0.000003938701
205       0.000000547294
206      -0.000003820012
207      -0.000000482694
208       0.000000050059
209       0.000000440336
210       0.000000320785
211       0.000000381210
212       0.000000838732
213      -0.000000336693
214      -0.000004520256
215      -0.000000940236
216      -0.000004265941
217      -0.000000358786
218      -0.000000141221
219       0.000000456613
220      -0.000000487141
221       0.000000040253
222       0.000000627458
223       0.000000227965
224       0.000000484348
225      -0.000000615921
226       0.000000776508
227      -0.000005676128
228      -0.000012072155
229      -0.000010777265
230      -0.000007584400
231      -0.000045175178
232      -0.000001752558
233       0.000000112043
234      -0.000000384382
235       0.000009290547
236      -0.000000592942
237       0.000002144577
238       0.000007351379
239      -0.000000456118
240       0.000001821353
241       0.000028723326