[Molden Format]
[Title]
 Molden file created by orca_2mkl for BaseName=/data01/Nikolayandreadi/heavy/cations/Np_3+

[Atoms] AU
Np   1  93          0.0415890928         1.5388172189        -3.6027401976 
[GTO]
  1 0
s   9 1.0 
 60212393.7825810015     16460.1280594584
 27369269.9011729993     -6013.5086094560
 12440577.2278060000      9343.9211279925
  5654807.8308210000       308.3663916485
  2570367.1958280001      4334.3325603517
  1168348.7253759999      1972.8827387435
   531067.6024440000      2728.3967901233
   241394.3647470000      2034.2792369220
   109724.7112490000      2086.3436128711
s   1 1.0 
    49874.8687490000      2378.6000111367
s   1 1.0 
    22670.3948860000      1316.7532712607
s   1 1.0 
    10304.7249480000       728.9326365214
s   1 1.0 
     4683.9658860000       403.5249429308
s   1 1.0 
     2129.0754030000       223.3846742626
s   1 1.0 
      967.7615470000       123.6620277677
s   1 1.0 
      439.8916120000        68.4572348252
s   1 1.0 
      199.9507330000        37.8967827997
s   1 1.0 
       90.8866970000        20.9790265547
s   1 1.0 
       41.3121350000        11.6136389953
s   1 1.0 
       18.7782430000         6.4291166887
s   1 1.0 
        8.5355650000         3.5590517075
s   1 1.0 
        3.8798020000         1.9702315267
s   1 1.0 
        1.7635460000         1.0906871246
s   1 1.0 
        0.8016120000         0.6037862931
s   1 1.0 
        0.3643690000         0.3342459531
s   1 1.0 
        0.1656220000         0.1850327531
s   1 1.0 
        0.0752830000         0.1024313225
s   1 1.0 
        0.0342190000         0.0567035929
s   1 1.0 
        0.0155540000         0.0313900251
p   8 1.0 
   859302.8310040000    131775.7051530663
   358042.8462520000     11325.8407160590
   149184.5192720000     38266.0812549783
    62160.2163630000     19009.8155098714
    25900.0901510000     18342.5702252260
    10791.7042300000     14732.4699955005
     4496.5434290000     13756.3118120073
     1873.5597620000     12431.3284313481
p   1 1.0 
      780.6499010000      5881.8029941886
p   1 1.0 
      325.2707920000      1969.0031994381
p   1 1.0 
      135.5294970000       659.1471384521
p   1 1.0 
       56.4706240000       220.6573109288
p   1 1.0 
       23.5294270000        73.8676489948
p   1 1.0 
        9.8039280000        24.7280704473
p   1 1.0 
        4.0849700000         8.2780143929
p   1 1.0 
        1.7020710000         2.7711636791
p   1 1.0 
        0.7091960000         0.9276794468
p   1 1.0 
        0.2954980000         0.3105512418
p   1 1.0 
        0.1231240000         0.1039605296
p   1 1.0 
        0.0513020000         0.0348023010
d   7 1.0 
    42129.4422870000     56906.5227948507
    16851.7769150000     28000.6591442440
     6740.7107660000     31059.1451506409
     2696.2843060000     28550.8495479176
     1078.5137230000     30419.9475915360
      431.4054890000     27516.9214778059
      172.5621960000     18646.3556919396
d   1 1.0 
       69.0248780000      4712.2678372904
d   1 1.0 
       27.6099510000       948.0580852984
d   1 1.0 
       11.0439810000       190.7392068921
d   1 1.0 
        4.4175920000        38.3746907348
d   1 1.0 
        1.7670370000         7.7205805666
d   1 1.0 
        0.7068150000         1.5532993453
d   1 1.0 
        0.2827260000         0.3125072837
d   1 1.0 
        0.1130900000         0.0628727477
d   1 1.0 
        0.0452360000         0.0126493272
f   6 1.0 
     4574.1842730000     62886.0548377263
     1759.3016440000     54541.2436081452
      676.6544780000     60258.2175061621
      260.2517220000     58997.4055482529
      100.0968160000     42811.8352412536
       38.4987760000     17381.1576470009
f   1 1.0 
       14.8072210000      2452.2547560014
f   1 1.0 
        5.6950850000       285.6771815775
f   1 1.0 
        2.1904170000        33.2801582217
f   1 1.0 
        0.8424680000         3.8769951722
f   1 1.0 
        0.3240260000         0.4516528586
f   1 1.0 
        0.1246250000         0.0526152593

[5D]
[7F]
[9G]
[MO]
 Sym=     1a
 Ene= -4.37414436230693E+03
 Spin= Alpha
 Occup= 1.000000
  1      -0.087306462158
  2      -0.066328226079
  3      -0.113242632316
  4      -0.178787930999
  5      -0.264676445840
  6      -0.301328148152
  7      -0.190680694356
  8      -0.031596713843
  9      -0.000892710455
 10       0.000633966659
 11      -0.000461781624
 12       0.000340764698
 13      -0.000241746577
 14       0.000162590270
 15      -0.000107510634
 16       0.000070688623
 17      -0.000045588350
 18       0.000028196194
 19      -0.000015932006
 20       0.000007296353
 21      -0.000001965555
 22       0.000000000000
 23      -0.000000000000
 24      -0.000000000000
 25       0.000000000000
 26       0.000000000000
 27       0.000000000000
 28      -0.000000000000
 29      -0.000000000000
 30      -0.000000000000
 31       0.000000000000
 32       0.000000000000
 33       0.000000000000
 34      -0.000000000000
 35      -0.000000000000
 36      -0.000000000000
 37       0.000000000000
 38       0.000000000000
 39       0.000000000000
 40      -0.000000000000
 41      -0.000000000000
 42      -0.000000000000
 43       0.000000000000
 44       0.000000000000
 45       0.000000000000
 46      -0.000000000000
 47      -0.000000000000
 48      -0.000000000000
 49       0.000000000000
 50       0.000000000000
 51      -0.000000000000
 52      -0.000000000000
 53       0.000000000000
 54       0.000000000000
 55       0.000000000000
 56      -0.000000000000
 57      -0.000000000000
 58      -0.000000000000
 59       0.000000000000
 60       0.000000000000
 61       0.000000000001
 62       0.000000000003
 63      -0.000000000001
 64       0.000000000003
 65      -0.000000000002
 66      -0.000000000001
 67      -0.000000000002
 68       0.000000000002
 69      -0.000000000002
 70       0.000000000002
 71       0.000000000000
 72       0.000000000002
 73      -0.000000000001
 74       0.000000000001
 75      -0.000000000001
 76      -0.000000000000
 77      -0.000000000001
 78       0.000000000001
 79      -0.000000000001
 80       0.000000000001
 81       0.000000000000
 82       0.000000000001
 83      -0.000000000000
 84       0.000000000000
 85      -0.000000000000
 86       0.000000000000
 87      -0.000000000000
 88       0.000000000000
 89      -0.000000000000
 90       0.000000000000
 91       0.000000000000
 92       0.000000000000
 93      -0.000000000000
 94       0.000000000000
 95      -0.000000000000
 96      -0.000000000000
 97      -0.000000000000
 98       0.000000000000
 99      -0.000000000000
100      -0.000000000000
101       0.000000000000
102       0.000000000000
103       0.000000000000
104       0.000000000000
105       0.000000000000
106      -0.000000000000
107      -0.000000000000
108      -0.000000000000
109      -0.000000000000
110      -0.000000000000
111       0.000000000000
112      -0.000000000000
113       0.000000000000
114       0.000000000000
115      -0.000000000000
116      -0.000000000000
117      -0.000000000003
118      -0.000000000000
119       0.000000000000
120       0.000000000000
121      -0.000000000000
122      -0.000000000000
123       0.000000000000
124       0.000000000001
125      -0.000000000000
126      -0.000000000000
127      -0.000000000000
128       0.000000000000
129       0.000000000000
130      -0.000000000000
131       0.000000000002
132       0.000000000000
133       0.000000000000
134       0.000000000000
135      -0.000000000000
136      -0.000000000000
137       0.000000000000
138      -0.000000000001
139      -0.000000000000
140      -0.000000000000
141      -0.000000000000
142       0.000000000000
143      -0.000000000000
144       0.000000000000
145       0.000000000001
146       0.000000000000
147      -0.000000000000
148       0.000000000000
149      -0.000000000000
150       0.000000000000
151       0.000000000000
152      -0.000000000001
153      -0.000000000000
154       0.000000000000
155       0.000000000000
156       0.000000000000
157       0.000000000000
158      -0.000000000000
159       0.000000000000
 Sym=     1a
 Ene= -8.29788118908310E+02
 Spin= Alpha
 Occup= 1.000000
  1      -0.037062080255
  2      -0.030426127107
  3      -0.050706612291
  4      -0.087784768136
  5      -0.139378761990
  6      -0.176536587603
  7      -0.067158864329
  8       0.374937628196
  9       0.607148553934
 10       0.165169953580
 11      -0.001948688810
 12       0.001578639536
 13      -0.000811507392
 14       0.000398192982
 15      -0.000211156663
 16       0.000129536221
 17      -0.000081351463
 18       0.000049301080
 19      -0.000027665341
 20       0.000012629097
 21      -0.000003397248
 22      -0.000000000000
 23       0.000000000000
 24       0.000000000000
 25      -0.000000000001
 26       0.000000000000
 27       0.000000000000
 28      -0.000000000001
 29       0.000000000000
 30       0.000000000000
 31      -0.000000000001
 32       0.000000000000
 33       0.000000000000
 34       0.000000000000
 35      -0.000000000000
 36       0.000000000000
 37      -0.000000000000
 38       0.000000000000
 39      -0.000000000000
 40       0.000000000001
 41      -0.000000000000
 42      -0.000000000000
 43      -0.000000000001
 44      -0.000000000000
 45       0.000000000000
 46       0.000000000001
 47      -0.000000000000
 48      -0.000000000000
 49      -0.000000000000
 50       0.000000000000
 51       0.000000000000
 52       0.000000000000
 53      -0.000000000001
 54      -0.000000000000
 55      -0.000000000001
 56       0.000000000004
 57       0.000000000001
 58       0.000000000000
 59      -0.000000000003
 60      -0.000000000000
 61      -0.000000000052
 62      -0.000000000210
 63       0.000000000092
 64      -0.000000000190
 65       0.000000000147
 66      -0.000000000020
 67      -0.000000000022
 68       0.000000000032
 69      -0.000000000031
 70       0.000000000027
 71       0.000000000007
 72       0.000000000019
 73      -0.000000000012
 74       0.000000000026
 75      -0.000000000015
 76      -0.000000000005
 77      -0.000000000005
 78       0.000000000008
 79      -0.000000000013
 80       0.000000000006
 81       0.000000000003
 82      -0.000000000000
 83      -0.000000000005
 84       0.000000000005
 85      -0.000000000002
 86      -0.000000000001
 87       0.000000000000
 88       0.000000000001
 89      -0.000000000002
 90      -0.000000000000
 91       0.000000000001
 92      -0.000000000001
 93      -0.000000000001
 94       0.000000000001
 95       0.000000000000
 96       0.000000000003
 97       0.000000000002
 98      -0.000000000002
 99       0.000000000001
100       0.000000000000
101      -0.000000000002
102      -0.000000000001
103       0.000000000001
104      -0.000000000003
105      -0.000000000000
106       0.000000000001
107       0.000000000001
108      -0.000000000000
109       0.000000000001
110       0.000000000000
111      -0.000000000000
112       0.000000000000
113       0.000000000000
114      -0.000000000000
115       0.000000000000
116       0.000000000000
117      -0.000000000001
118      -0.000000000000
119      -0.000000000000
120      -0.000000000000
121       0.000000000000
122      -0.000000000000
123      -0.000000000000
124       0.000000000011
125      -0.000000000000
126       0.000000000000
127       0.000000000000
128      -0.000000000000
129       0.000000000000
130       0.000000000000
131      -0.000000000068
132       0.000000000000
133      -0.000000000000
134      -0.000000000000
135       0.000000000000
136      -0.000000000000
137      -0.000000000000
138       0.000000000046
139      -0.000000000000
140      -0.000000000000
141       0.000000000000
142      -0.000000000000
143      -0.000000000000
144       0.000000000000
145      -0.000000000024
146      -0.000000000000
147       0.000000000001
148      -0.000000000001
149       0.000000000001
150       0.000000000000
151      -0.000000000000
152       0.000000000022
153      -0.000000000000
154      -0.000000000001
155      -0.000000000002
156      -0.000000000000
157      -0.000000000000
158       0.000000000000
159      -0.000000000009
 Sym=     1a
 Ene= -6.94116935189068E+02
 Spin= Alpha
 Occup= 1.000000
  1       0.000000000000
  2       0.000000000000
  3       0.000000000000
  4      -0.000000000000
  5       0.000000000000
  6      -0.000000000000
  7       0.000000000000
  8       0.000000000000
  9      -0.000000000001
 10       0.000000000001
 11      -0.000000000001
 12       0.000000000001
 13      -0.000000000000
 14       0.000000000000
 15      -0.000000000000
 16       0.000000000001
 17      -0.000000000000
 18      -0.000000000001
 19       0.000000000003
 20      -0.000000000003
 21       0.000000000000
 22      -0.050096451412
 23      -0.172037978722
 24      -0.016449905833
 25      -0.084687987027
 26      -0.290829982956
 27      -0.027808544767
 28      -0.127065044613
 29      -0.436358520925
 30      -0.041723674214
 31      -0.066507421759
 32      -0.228395466872
 33      -0.021838689068
 34      -0.002174298366
 35      -0.007466834180
 36      -0.000713962819
 37      -0.001218535845
 38      -0.004184616629
 39      -0.000400124144
 40       0.000841168256
 41       0.002888685369
 42       0.000276209953
 43      -0.000516421609
 44      -0.001773461533
 45      -0.000169574622
 46       0.000310149573
 47       0.001065095513
 48       0.000101842168
 49      -0.000183700266
 50      -0.000630851519
 51      -0.000060320680
 52       0.000102712042
 53       0.000352727026
 54       0.000033727007
 55      -0.000049654116
 56      -0.000170518942
 57      -0.000016304658
 58       0.000015543928
 59       0.000053379951
 60       0.000005104077
 61       0.000000000001
 62       0.000000000001
 63       0.000000000000
 64      -0.000000000001
 65      -0.000000000002
 66      -0.000000000000
 67      -0.000000000000
 68      -0.000000000001
 69       0.000000000002
 70       0.000000000000
 71      -0.000000000002
 72       0.000000000000
 73       0.000000000002
 74      -0.000000000012
 75       0.000000000000
 76       0.000000000013
 77      -0.000000000001
 78      -0.000000000008
 79       0.000000000010
 80      -0.000000000004
 81      -0.000000000013
 82       0.000000000003
 83       0.000000000009
 84      -0.000000000005
 85       0.000000000004
 86       0.000000000019
 87      -0.000000000010
 88      -0.000000000017
 89       0.000000000001
 90      -0.000000000005
 91      -0.000000000015
 92       0.000000000008
 93       0.000000000013
 94       0.000000000004
 95       0.000000000004
 96       0.000000000008
 97      -0.000000000004
 98      -0.000000000007
 99      -0.000000000004
100      -0.000000000002
101      -0.000000000004
102       0.000000000002
103       0.000000000003
104       0.000000000002
105       0.000000000001
106       0.000000000001
107      -0.000000000001
108      -0.000000000001
109      -0.000000000001
110      -0.000000000000
111      -0.000000000031
112       0.000000000078
113      -0.000000000060
114       0.000000000124
115      -0.000000000001
116      -0.000000000046
117       0.000000000021
118      -0.000000000004
119      -0.000000000018
120      -0.000000000021
121      -0.000000000045
122      -0.000000000033
123       0.000000000054
124       0.000000000046
125       0.000000000005
126       0.000000000005
127       0.000000000021
128       0.000000000017
129       0.000000000019
130      -0.000000000035
131      -0.000000000037
132       0.000000000001
133      -0.000000000008
134      -0.000000000002
135      -0.000000000014
136      -0.000000000004
137       0.000000000014
138       0.000000000010
139       0.000000000000
140       0.000000000003
141       0.000000000003
142       0.000000000006
143       0.000000000003
144      -0.000000000008
145      -0.000000000006
146      -0.000000000000
147      -0.000000000002
148      -0.000000000001
149      -0.000000000003
150      -0.000000000001
151       0.000000000004
152       0.000000000002
153       0.000000000000
154       0.000000000001
155       0.000000000001
156       0.000000000001
157       0.000000000000
158      -0.000000000001
159      -0.000000000001
 Sym=     1a
 Ene= -6.94116935111604E+02
 Spin= Alpha
 Occup= 1.000000
  1      -0.000000000000
  2      -0.000000000000
  3      -0.000000000000
  4      -0.000000000000
  5      -0.000000000000
  6      -0.000000000001
  7       0.000000000000
  8       0.000000000001
  9       0.000000000001
 10       0.000000000000
 11       0.000000000000
 12      -0.000000000000
 13       0.000000000000
 14      -0.000000000000
 15       0.000000000001
 16      -0.000000000003
 17       0.000000000000
 18       0.000000000006
 19      -0.000000000014
 20       0.000000000012
 21      -0.000000000002
 22       0.105737847912
 23      -0.016963932698
 24      -0.144599628222
 25       0.178749696637
 26      -0.028677506525
 27      -0.244445486540
 28       0.268194332811
 29      -0.043027456116
 30      -0.366763666769
 31       0.140376243110
 32      -0.022521104683
 33      -0.191968656108
 34       0.004589259772
 35      -0.000736272736
 36      -0.006275948201
 37       0.002571945817
 38      -0.000412627229
 39      -0.003517211830
 40      -0.001775441544
 41       0.000284840964
 42       0.002427968723
 43       0.001090003539
 44      -0.000174873491
 45      -0.001490612016
 46      -0.000654628173
 47       0.000105024535
 48       0.000895223351
 49       0.000387733470
 50      -0.000062205585
 51      -0.000530236967
 52      -0.000216792811
 53       0.000034780912
 54       0.000296470569
 55       0.000104804221
 56      -0.000016814149
 57      -0.000143322866
 58      -0.000032808344
 59       0.000005263571
 60       0.000044866380
 61      -0.000000000002
 62      -0.000000000001
 63      -0.000000000001
 64       0.000000000001
 65       0.000000000004
 66      -0.000000000001
 67       0.000000000001
 68       0.000000000002
 69      -0.000000000002
 70      -0.000000000001
 71       0.000000000006
 72      -0.000000000000
 73      -0.000000000005
 74       0.000000000017
 75      -0.000000000001
 76      -0.000000000038
 77       0.000000000003
 78       0.000000000022
 79      -0.000000000014
 80       0.000000000011
 81       0.000000000035
 82      -0.000000000005
 83      -0.000000000022
 84       0.000000000007
 85      -0.000000000010
 86      -0.000000000038
 87       0.000000000014
 88       0.000000000030
 89       0.000000000000
 90       0.000000000010
 91       0.000000000027
 92      -0.000000000012
 93      -0.000000000021
 94      -0.000000000013
 95      -0.000000000008
 96      -0.000000000014
 97       0.000000000006
 98       0.000000000011
 99       0.000000000011
100       0.000000000005
101       0.000000000007
102      -0.000000000003
103      -0.000000000005
104      -0.000000000006
105      -0.000000000002
106      -0.000000000002
107       0.000000000001
108       0.000000000002
109       0.000000000002
110       0.000000000001
111       0.000000000098
112       0.000000000024
113      -0.000000000118
114       0.000000000046
115      -0.000000000011
116       0.000000000015
117      -0.000000000113
118      -0.000000000043
119      -0.000000000045
120       0.000000000031
121      -0.000000000013
122       0.000000000006
123      -0.000000000028
124       0.000000000036
125       0.000000000027
126       0.000000000028
127      -0.000000000001
128       0.000000000011
129       0.000000000015
130       0.000000000016
131      -0.000000000014
132      -0.000000000017
133      -0.000000000010
134       0.000000000005
135      -0.000000000009
136      -0.000000000012
137      -0.000000000004
138       0.000000000013
139       0.000000000008
140       0.000000000005
141      -0.000000000001
142       0.000000000004
143       0.000000000006
144       0.000000000003
145      -0.000000000005
146      -0.000000000004
147      -0.000000000002
148       0.000000000001
149      -0.000000000002
150      -0.000000000002
151      -0.000000000001
152       0.000000000003
153       0.000000000001
154       0.000000000000
155      -0.000000000001
156       0.000000000001
157       0.000000000001
158       0.000000000000
159      -0.000000000001
 Sym=     1a
 Ene= -6.94116934892400E+02
 Spin= Alpha
 Occup= 1.000000
  1       0.000000000000
  2       0.000000000000
  3       0.000000000000
  4       0.000000000000
  5       0.000000000000
  6      -0.000000000000
  7       0.000000000000
  8      -0.000000000001
  9      -0.000000000002
 10       0.000000000001
 11      -0.000000000002
 12       0.000000000002
 13      -0.000000000002
 14       0.000000000002
 15      -0.000000000003
 16       0.000000000006
 17      -0.000000000001
 18      -0.000000000013
 19       0.000000000030
 20      -0.000000000026
 21       0.000000000005
 22      -0.136701035330
 23       0.049924731701
 24      -0.105819034669
 25      -0.231092925370
 26       0.084397695082
 27      -0.178886942754
 28      -0.346729611833
 29       0.126629493355
 30      -0.268400255550
 31      -0.181482582817
 32       0.066279448667
 33      -0.140484025408
 34      -0.005933131532
 35       0.002166845324
 36      -0.004592783435
 37      -0.003325088122
 38       0.001214359000
 39      -0.002573920636
 40       0.002295343651
 41      -0.000838284916
 42       0.001776804756
 43      -0.001409188996
 44       0.000514651424
 45      -0.001090840452
 46       0.000846322781
 47      -0.000309086452
 48       0.000655130807
 49      -0.000501273369
 50       0.000183070592
 51      -0.000388031179
 52       0.000280276199
 53      -0.000102359978
 54       0.000216959269
 55      -0.000135494017
 56       0.000049483921
 57      -0.000104884692
 58       0.000042415604
 59      -0.000015490651
 60       0.000032833536
 61       0.000000000001
 62       0.000000000000
 63       0.000000000000
 64      -0.000000000000
 65      -0.000000000002
 66       0.000000000003
 67       0.000000000001
 68      -0.000000000003
 69       0.000000000001
 70      -0.000000000002
 71      -0.000000000014
 72      -0.000000000000
 73       0.000000000008
 74      -0.000000000003
 75       0.000000000005
 76       0.000000000076
 77      -0.000000000004
 78      -0.000000000043
 79       0.000000000003
 80      -0.000000000023
 81      -0.000000000063
 82       0.000000000005
 83       0.000000000037
 84       0.000000000000
 85       0.000000000020
 86       0.000000000039
 87      -0.000000000005
 88      -0.000000000024
 89      -0.000000000007
 90      -0.000000000013
 91      -0.000000000022
 92       0.000000000003
 93       0.000000000011
 94       0.000000000030
 95       0.000000000010
 96       0.000000000012
 97      -0.000000000001
 98      -0.000000000005
 99      -0.000000000025
100      -0.000000000006
101      -0.000000000005
102       0.000000000001
103       0.000000000002
104       0.000000000013
105       0.000000000003
106       0.000000000002
107      -0.000000000000
108      -0.000000000001
109      -0.000000000005
110      -0.000000000001
111      -0.000000000004
112       0.000000000057
113       0.000000000009
114       0.000000000196
115       0.000000000035
116      -0.000000000134
117       0.000000000081
118       0.000000000025
119      -0.000000000033
120       0.000000000020
121      -0.000000000061
122       0.000000000053
123       0.000000000038
124      -0.000000000052
125      -0.000000000031
126       0.000000000024
127      -0.000000000035
128       0.000000000009
129      -0.000000000087
130      -0.000000000004
131       0.000000000029
132       0.000000000015
133      -0.000000000015
134       0.000000000018
135      -0.000000000011
136       0.000000000042
137       0.000000000007
138      -0.000000000015
139      -0.000000000008
140       0.000000000007
141      -0.000000000009
142       0.000000000004
143      -0.000000000022
144      -0.000000000002
145       0.000000000007
146       0.000000000004
147      -0.000000000003
148       0.000000000004
149      -0.000000000002
150       0.000000000010
151       0.000000000001
152      -0.000000000003
153      -0.000000000001
154       0.000000000002
155      -0.000000000001
156       0.000000000001
157      -0.000000000003
158      -0.000000000000
159       0.000000000001
 Sym=     1a
 Ene= -2.14210748531370E+02
 Spin= Alpha
 Occup= 1.000000
  1      -0.018173775783
  2      -0.015145923242
  3      -0.025011135215
  4      -0.044470187628
  5      -0.070446770254
  6      -0.093722603449
  7      -0.022916705614
  8       0.301228639968
  9       0.689339262471
 10      -0.217664415873
 11      -0.982235688466
 12      -0.132031026837
 13      -0.020312625810
 14       0.015535972927
 15      -0.010936409972
 16       0.007484308507
 17      -0.004919558628
 18       0.003068739682
 19      -0.001741770110
 20       0.000799376331
 21      -0.000215555920
 22      -0.000000000001
 23      -0.000000000000
 24       0.000000000001
 25      -0.000000000002
 26      -0.000000000001
 27       0.000000000002
 28      -0.000000000004
 29      -0.000000000000
 30       0.000000000002
 31       0.000000000003
 32      -0.000000000000
 33      -0.000000000000
 34       0.000000000006
 35       0.000000000002
 36      -0.000000000009
 37       0.000000000006
 38      -0.000000000000
 39      -0.000000000003
 40      -0.000000000008
 41       0.000000000000
 42       0.000000000001
 43       0.000000000008
 44       0.000000000001
 45      -0.000000000001
 46      -0.000000000006
 47       0.000000000001
 48       0.000000000003
 49       0.000000000004
 50      -0.000000000005
 51      -0.000000000003
 52      -0.000000000004
 53       0.000000000015
 54       0.000000000004
 55       0.000000000007
 56      -0.000000000046
 57      -0.000000000008
 58      -0.000000000002
 59       0.000000000031
 60       0.000000000002
 61       0.000000000457
 62       0.000000001313
 63      -0.000000000753
 64       0.000000001253
 65      -0.000000001019
 66       0.000000000934
 67       0.000000002939
 68      -0.000000001590
 69       0.000000002804
 70      -0.000000002237
 71       0.000000000166
 72       0.000000001209
 73      -0.000000000353
 74       0.000000000987
 75      -0.000000000801
 76       0.000000000021
 77      -0.000000000041
 78      -0.000000000023
 79       0.000000000018
 80       0.000000000019
 81       0.000000000019
 82       0.000000000091
 83      -0.000000000040
 84       0.000000000064
 85      -0.000000000068
 86       0.000000000026
 87      -0.000000000039
 88      -0.000000000031
 89      -0.000000000009
 90      -0.000000000000
 91      -0.000000000003
 92       0.000000000028
 93       0.000000000011
 94       0.000000000015
 95       0.000000000005
 96      -0.000000000028
 97      -0.000000000027
 98       0.000000000005
 99      -0.000000000020
100      -0.000000000023
101       0.000000000022
102       0.000000000015
103      -0.000000000007
104       0.000000000038
105       0.000000000013
106      -0.000000000008
107      -0.000000000005
108       0.000000000003
109      -0.000000000019
110      -0.000000000003
111       0.000000000001
112      -0.000000000002
113      -0.000000000004
114       0.000000000002
115      -0.000000000004
116      -0.000000000003
117       0.000000000034
118       0.000000000000
119       0.000000000002
120       0.000000000003
121      -0.000000000001
122       0.000000000002
123       0.000000000003
124      -0.000000000083
125      -0.000000000000
126      -0.000000000001
127      -0.000000000002
128       0.000000000002
129      -0.000000000002
130      -0.000000000003
131       0.000000000573
132       0.000000000000
133       0.000000000000
134       0.000000000001
135      -0.000000000001
136       0.000000000001
137       0.000000000002
138      -0.000000000379
139      -0.000000000000
140       0.000000000001
141      -0.000000000002
142       0.000000000002
143       0.000000000001
144      -0.000000000001
145       0.000000000207
146       0.000000000003
147      -0.000000000014
148       0.000000000007
149      -0.000000000007
150      -0.000000000003
151       0.000000000003
152      -0.000000000227
153       0.000000000001
154       0.000000000009
155       0.000000000021
156       0.000000000003
157       0.000000000003
158      -0.000000000003
159       0.000000000094
 Sym=     1a
 Ene= -1.75922375391408E+02
 Spin= Alpha
 Occup= 1.000000
  1       0.000000000000
  2       0.000000000000
  3       0.000000000000
  4       0.000000000000
  5       0.000000000000
  6       0.000000000000
  7       0.000000000000
  8      -0.000000000001
  9      -0.000000000003
 10       0.000000000001
 11       0.000000000004
 12      -0.000000000001
 13       0.000000000002
 14      -0.000000000003
 15       0.000000000007
 16      -0.000000000008
 17       0.000000000007
 18      -0.000000000018
 19       0.000000000024
 20      -0.000000000013
 21       0.000000000003
 22      -0.028115885760
 23      -0.096189079567
 24      -0.010663433823
 25      -0.051047811194
 26      -0.174642976374
 27      -0.019360761420
 28      -0.077764897807
 29      -0.266046533507
 30      -0.029493676599
 31       0.034936179344
 32       0.119522428122
 33       0.013250147636
 34       0.207101616068
 35       0.708528765307
 36       0.078546854241
 37       0.070227504004
 38       0.240259867204
 39       0.026634989834
 40      -0.002097264440
 41      -0.007175087418
 42      -0.000795423602
 43       0.001624105866
 44       0.005556333882
 45       0.000615970126
 46      -0.000926118636
 47      -0.003168404524
 48      -0.000351246435
 49       0.000518680801
 50       0.001774492536
 51       0.000196718623
 52      -0.000286184659
 53      -0.000979084907
 54      -0.000108540458
 55       0.000137801514
 56       0.000471441712
 57       0.000052263598
 58      -0.000043084175
 59      -0.000147398076
 60      -0.000016340416
 61       0.000000000005
 62      -0.000000000002
 63       0.000000000004
 64      -0.000000000000