[Molden Format]
[Title]
 Molden file created by orca_2mkl for BaseName=/data01/Nikolayandreadi/heavy/cations/Cm_3+

[Atoms] AU
Cm   1  96          0.0415890928         1.5388172189        -3.6027401976 
[GTO]
  1 0
s   9 1.0 
 64183659.7122879997     18341.7117038968
 29174390.7783129998     -6758.1714140571
 13261086.7174149994     10363.5572157870
  6027766.6897339998       244.9966118343
  2739893.9498790000      4735.4899330975
  1245406.3408540001      2073.6914683036
   566093.7912970000      2911.1694935105
   257315.3596810000      2119.4045241260
   116961.5271280000      2167.8378182398
s   1 1.0 
    53164.3305130000      2495.3148673636
s   1 1.0 
    24165.6047780000      1381.3646678584
s   1 1.0 
    10984.3658080000       764.7004274204
s   1 1.0 
     4992.8935490000       423.3253950261
s   1 1.0 
     2269.4970680000       234.3458741054
s   1 1.0 
     1031.5895760000       129.7299650246
s   1 1.0 
      468.9043530000        71.8163436899
s   1 1.0 
      213.1383420000        39.7563293323
s   1 1.0 
       96.8810650000        22.0084405283
s   1 1.0 
       44.0368480000        12.1835054485
s   1 1.0 
       20.0167490000         6.7445852707
s   1 1.0 
        9.0985220000         3.7336897659
s   1 1.0 
        4.1356920000         2.0669084135
s   1 1.0 
        1.8798600000         1.1442060044
s   1 1.0 
        0.8544820000         0.6334134502
s   1 1.0 
        0.3884010000         0.3506471770
s   1 1.0 
        0.1765460000         0.1941125004
s   1 1.0 
        0.0802480000         0.1074572582
s   1 1.0 
        0.0364760000         0.0594861001
s   1 1.0 
        0.0165800000         0.0329305123
p   8 1.0 
   919065.4160050000    155084.3037269538
   382943.9233360000     13033.8591220902
   159559.9680560000     44494.9241943929
    66483.3200240000     21741.9357752702
    27701.3833430000     20810.8542073269
    11542.2430600000     16433.3243630285
     4809.2679420000     15112.5581166837
     2003.8616420000     13426.4666313791
p   1 1.0 
      834.9423510000      6397.5059864314
p   1 1.0 
      347.8926460000      2141.6408813544
p   1 1.0 
      144.9552690000       716.9396436587
p   1 1.0 
       60.3980290000       240.0040364015
p   1 1.0 
       25.1658450000        80.3441914649
p   1 1.0 
       10.4857690000        26.8961702682
p   1 1.0 
        4.3690700000         9.0038104076
p   1 1.0 
        1.8204460000         3.0141324951
p   1 1.0 
        0.7585190000         1.0090162666
p   1 1.0 
        0.3160500000         0.3377806999
p   1 1.0 
        0.1316870000         0.1130755524
p   1 1.0 
        0.0548700000         0.0378537394
d   7 1.0 
    45453.5554980000     69158.5304221611
    18181.4221990000     33549.0608196543
     7272.5688800000     36764.8300380107
     2909.0275520000     33296.4812113045
     1163.6110210000     35048.2136713992
      465.4444080000     31458.4333595288
      186.1777630000     21284.8094929165
d   1 1.0 
       74.4711050000      5382.0624155238
d   1 1.0 
       29.7884420000      1082.8136323072
d   1 1.0 
       11.9153770000       217.8505758998
d   1 1.0 
        4.7661510000        43.8292187085
d   1 1.0 
        1.9064600000         8.8179687304
d   1 1.0 
        0.7625840000         1.7740813862
d   1 1.0 
        0.3050340000         0.3569270978
d   1 1.0 
        0.1220130000         0.0718093124
d   1 1.0 
        0.0488050000         0.0144471652
f   6 1.0 
     5137.9626210000     79478.5378028876
     1976.1394700000     69378.2233604487
      760.0536420000     74836.3018841376
      292.3283240000     73855.3374665989
      112.4339710000     54388.1326524370
       43.2438350000     22700.0167896505
f   1 1.0 
       16.6322440000      3185.2203837389
f   1 1.0 
        6.3970170000       371.0645496036
f   1 1.0 
        2.4603910000        43.2274255115
f   1 1.0 
        0.9463040000         5.0358072630
f   1 1.0 
        0.3639630000         0.5866497101
f   1 1.0 
        0.1399860000         0.0683424334

[5D]
[7F]
[9G]
[MO]
 Sym=     1a
 Ene= -4.72698665110269E+03
 Spin= Alpha
 Occup= 1.000000
  1       0.094758816255
  2       0.069941025909
  3       0.117991632565
  4       0.182508642897
  5       0.265284260725
  6       0.295462119696
  7       0.183765198312
  8       0.029690516460
  9       0.000972689329
 10      -0.000705265469
 11       0.000509688738
 12      -0.000370774941
 13       0.000261299876
 14      -0.000175732699
 15       0.000116210623
 16      -0.000076362698
 17       0.000049237413
 18      -0.000030453420
 19       0.000017206890
 20      -0.000007880240
 21       0.000002122842
 22      -0.000000000000
 23       0.000000000000
 24      -0.000000000000
 25       0.000000000000
 26      -0.000000000000
 27       0.000000000000
 28      -0.000000000000
 29      -0.000000000000
 30      -0.000000000000
 31      -0.000000000000
 32       0.000000000000
 33      -0.000000000000
 34       0.000000000000
 35      -0.000000000000
 36       0.000000000000
 37      -0.000000000000
 38       0.000000000000
 39       0.000000000000
 40       0.000000000000
 41       0.000000000000
 42      -0.000000000000
 43      -0.000000000000
 44      -0.000000000000
 45       0.000000000000
 46       0.000000000000
 47       0.000000000000
 48      -0.000000000000
 49       0.000000000000
 50      -0.000000000000
 51       0.000000000000
 52      -0.000000000000
 53       0.000000000000
 54      -0.000000000000
 55       0.000000000000
 56      -0.000000000000
 57       0.000000000000
 58      -0.000000000000
 59       0.000000000000
 60      -0.000000000000
 61      -0.000000000000
 62       0.000000000000
 63      -0.000000000000
 64       0.000000000000
 65      -0.000000000000
 66       0.000000000000
 67       0.000000000000
 68      -0.000000000000
 69       0.000000000000
 70      -0.000000000000
 71      -0.000000000000
 72       0.000000000000
 73      -0.000000000000
 74       0.000000000000
 75      -0.000000000000
 76       0.000000000000
 77      -0.000000000000
 78      -0.000000000000
 79      -0.000000000000
 80       0.000000000000
 81      -0.000000000000
 82      -0.000000000000
 83       0.000000000000
 84      -0.000000000000
 85       0.000000000000
 86       0.000000000000
 87      -0.000000000000
 88      -0.000000000000
 89      -0.000000000000
 90       0.000000000000
 91      -0.000000000000
 92       0.000000000000
 93      -0.000000000000
 94       0.000000000000
 95       0.000000000000
 96      -0.000000000000
 97      -0.000000000000
 98       0.000000000000
 99      -0.000000000000
100       0.000000000000
101       0.000000000000
102       0.000000000000
103      -0.000000000000
104       0.000000000000
105      -0.000000000000
106      -0.000000000000
107      -0.000000000000
108       0.000000000000
109      -0.000000000000
110       0.000000000000
111      -0.000000000000
112       0.000000000000
113      -0.000000000000
114      -0.000000000000
115       0.000000000000
116       0.000000000000
117      -0.000000000000
118       0.000000000000
119      -0.000000000000
120       0.000000000000
121       0.000000000000
122      -0.000000000000
123      -0.000000000000
124       0.000000000000
125      -0.000000000000
126       0.000000000000
127      -0.000000000000
128      -0.000000000000
129       0.000000000000
130       0.000000000000
131      -0.000000000000
132       0.000000000000
133       0.000000000000
134       0.000000000000
135       0.000000000000
136      -0.000000000000
137      -0.000000000000
138       0.000000000000
139      -0.000000000000
140      -0.000000000000
141      -0.000000000000
142       0.000000000000
143       0.000000000000
144       0.000000000000
145      -0.000000000000
146       0.000000000000
147       0.000000000000
148       0.000000000000
149       0.000000000000
150      -0.000000000000
151      -0.000000000000
152      -0.000000000000
153       0.000000000000
154      -0.000000000000
155       0.000000000000
156      -0.000000000000
157       0.000000000000
158       0.000000000000
159       0.000000000000
 Sym=     1a
 Ene= -9.07576579660913E+02
 Spin= Alpha
 Occup= 1.000000
  1       0.040911822218
  2       0.032678249374
  3       0.053658762516
  4       0.091147938428
  5       0.141195240684
  6       0.172262501809
  7       0.051012531017
  8      -0.392358271009
  9      -0.594523106025
 10      -0.150875013743
 11       0.001460733569
 12      -0.000902230090
 13       0.000352371729
 14      -0.000100563647
 15       0.000015556221
 16      -0.000000644095
 17      -0.000001733871
 18       0.000002086644
 19      -0.000001378529
 20       0.000000673750
 21      -0.000000186608
 22       0.000000000001
 23      -0.000000000000
 24       0.000000000000
 25       0.000000000000
 26      -0.000000000000
 27       0.000000000001
 28       0.000000000001
 29      -0.000000000000
 30       0.000000000001
 31       0.000000000003
 32      -0.000000000000
 33       0.000000000003
 34      -0.000000000003
 35      -0.000000000000
 36      -0.000000000002
 37       0.000000000001
 38       0.000000000000
 39      -0.000000000002
 40      -0.000000000000
 41      -0.000000000000
 42       0.000000000004
 43      -0.000000000001
 44       0.000000000000
 45      -0.000000000002
 46       0.000000000001
 47      -0.000000000000
 48       0.000000000001
 49      -0.000000000000
 50       0.000000000000
 51      -0.000000000001
 52       0.000000000000
 53      -0.000000000000
 54       0.000000000000
 55      -0.000000000000
 56       0.000000000000
 57      -0.000000000000
 58       0.000000000000
 59      -0.000000000000
 60       0.000000000000
 61       0.000000000003
 62       0.000000000003
 63      -0.000000000001
 64       0.000000000006
 65      -0.000000000003
 66       0.000000000003
 67       0.000000000002
 68      -0.000000000001
 69       0.000000000005
 70      -0.000000000002
 71      -0.000000000002
 72      -0.000000000002
 73       0.000000000000
 74      -0.000000000003
 75       0.000000000001
 76       0.000000000002
 77       0.000000000002
 78      -0.000000000000
 79       0.000000000003
 80      -0.000000000001
 81      -0.000000000001
 82      -0.000000000001
 83       0.000000000000
 84      -0.000000000003
 85       0.000000000001
 86       0.000000000001
 87       0.000000000001
 88      -0.000000000000
 89       0.000000000001
 90      -0.000000000001
 91      -0.000000000000
 92      -0.000000000000
 93       0.000000000000
 94      -0.000000000001
 95       0.000000000000
 96       0.000000000000
 97       0.000000000000
 98      -0.000000000000
 99       0.000000000001
100      -0.000000000000
101      -0.000000000000
102      -0.000000000000
103       0.000000000000
104      -0.000000000001
105       0.000000000000
106       0.000000000000
107       0.000000000000
108      -0.000000000000
109       0.000000000000
110      -0.000000000000
111      -0.000000000000
112       0.000000000000
113       0.000000000000
114       0.000000000000
115       0.000000000000
116       0.000000000000
117       0.000000000000
118       0.000000000000
119       0.000000000000
120      -0.000000000000
121       0.000000000000
122      -0.000000000000
123      -0.000000000000
124      -0.000000000000
125      -0.000000000000
126      -0.000000000000
127       0.000000000000
128       0.000000000000
129       0.000000000000
130       0.000000000000
131      -0.000000000000
132       0.000000000000
133      -0.000000000000
134      -0.000000000000
135       0.000000000000
136      -0.000000000000
137      -0.000000000000
138       0.000000000000
139      -0.000000000000
140       0.000000000000
141       0.000000000000
142      -0.000000000000
143      -0.000000000000
144       0.000000000000
145       0.000000000000
146       0.000000000000
147      -0.000000000000
148       0.000000000000
149       0.000000000000
150       0.000000000000
151      -0.000000000000
152      -0.000000000000
153       0.000000000000
154       0.000000000000
155      -0.000000000000
156      -0.000000000000
157      -0.000000000000
158      -0.000000000000
159       0.000000000000
 Sym=     1a
 Ene= -7.50971893601119E+02
 Spin= Alpha
 Occup= 1.000000
  1       0.000000000000
  2       0.000000000000
  3      -0.000000000000
  4       0.000000000000
  5      -0.000000000000
  6       0.000000000001
  7      -0.000000000001
  8       0.000000000001
  9      -0.000000000002
 10       0.000000000001
 11      -0.000000000001
 12       0.000000000003
 13      -0.000000000009
 14       0.000000000012
 15      -0.000000000010
 16       0.000000000006
 17      -0.000000000004
 18       0.000000000003
 19      -0.000000000003
 20       0.000000000002
 21      -0.000000000001
 22       0.106306430618
 23       0.125980619878
 24      -0.085159192489
 25       0.175922003248
 26       0.208479984611
 27      -0.140926335789
 28       0.260410817310
 29       0.308605189697
 30      -0.208608028583
 31       0.134281645857
 32       0.159133223518
 33      -0.107569377149
 34       0.004051905956
 35       0.004801794402
 36      -0.003245871728
 37       0.002499268721
 38       0.002961809762
 39      -0.002002096296
 40      -0.001715875231
 41      -0.002033433209
 42       0.001374541062
 43       0.001053777493
 44       0.001248800679
 45      -0.000844152543
 46      -0.000632593731
 47      -0.000749668205
 48       0.000506753665
 49       0.000374404262
 50       0.000443695468
 51      -0.000299925089
 52      -0.000209332732
 53      -0.000248074058
 54       0.000167690768
 55       0.000101194028
 56       0.000119922064
 57      -0.000081063788
 58      -0.000031677857
 59      -0.000037540496
 60       0.000025376270
 61       0.000000000001
 62       0.000000000001
 63      -0.000000000001
 64       0.000000000001
 65      -0.000000000004
 66       0.000000000010
 67      -0.000000000009
 68       0.000000000003
 69       0.000000000003
 70       0.000000000020
 71      -0.000000000008
 72       0.000000000007
 73      -0.000000000003
 74      -0.000000000002
 75      -0.000000000015
 76       0.000000000004
 77      -0.000000000005
 78       0.000000000004
 79       0.000000000001
 80       0.000000000008
 81      -0.000000000002
 82       0.000000000003
 83      -0.000000000003
 84      -0.000000000001
 85      -0.000000000004
 86       0.000000000001
 87      -0.000000000001
 88       0.000000000002
 89       0.000000000000
 90       0.000000000002
 91      -0.000000000001
 92       0.000000000001
 93      -0.000000000001
 94      -0.000000000000
 95      -0.000000000001
 96       0.000000000000
 97      -0.000000000000
 98       0.000000000000
 99      -0.000000000000
100       0.000000000001
101      -0.000000000000
102       0.000000000000
103      -0.000000000000
104      -0.000000000001
105      -0.000000000000
106       0.000000000000
107      -0.000000000000
108       0.000000000000
109       0.000000000000
110       0.000000000000
111       0.000000000001
112      -0.000000000000
113      -0.000000000002
114       0.000000000001
115      -0.000000000001
116       0.000000000002
117       0.000000000004
118      -0.000000000001
119       0.000000000000
120       0.000000000002
121      -0.000000000001
122       0.000000000001
123      -0.000000000002
124      -0.000000000003
125       0.000000000000
126       0.000000000000
127      -0.000000000001
128       0.000000000000
129      -0.000000000000
130       0.000000000001
131       0.000000000002
132      -0.000000000000
133       0.000000000000
134       0.000000000000
135      -0.000000000000
136       0.000000000000
137      -0.000000000000
138      -0.000000000001
139       0.000000000000
140      -0.000000000000
141      -0.000000000000
142       0.000000000000
143      -0.000000000000
144       0.000000000000
145       0.000000000000
146      -0.000000000000
147       0.000000000000
148       0.000000000000
149      -0.000000000000
150       0.000000000000
151      -0.000000000000
152      -0.000000000000
153       0.000000000000
154      -0.000000000000
155      -0.000000000000
156      -0.000000000000
157       0.000000000000
158      -0.000000000000
159       0.000000000000
 Sym=     1a
 Ene= -7.50971893600161E+02
 Spin= Alpha
 Occup= 1.000000
  1      -0.000000000000
  2      -0.000000000000
  3       0.000000000000
  4      -0.000000000000
  5       0.000000000000
  6      -0.000000000001
  7       0.000000000000
  8       0.000000000000
  9       0.000000000001
 10      -0.000000000001
 11       0.000000000001
 12       0.000000000001
 13      -0.000000000006
 14       0.000000000009
 15      -0.000000000008
 16       0.000000000005
 17      -0.000000000004
 18       0.000000000004
 19      -0.000000000004
 20       0.000000000002
 21      -0.000000000001
 22       0.086685345534
 23      -0.135575843931
 24      -0.092353144253
 25       0.143451901732
 26      -0.224358713934
 27      -0.152831301444
 28       0.212346530197
 29      -0.332109883847
 30      -0.226230507745
 31       0.109497147087
 32      -0.171253491977
 33      -0.116656463200
 34       0.003304041586
 35      -0.005167519648
 36      -0.003520071664
 37       0.002037976176
 38      -0.003187393885
 39      -0.002171226399
 40      -0.001399174412
 41       0.002188308193
 42       0.001490657486
 43       0.000859280720
 44      -0.001343914684
 45      -0.000915463598
 46      -0.000515835269
 47       0.000806766143
 48       0.000549562443
 49       0.000305300089
 50      -0.000477489212
 51      -0.000325261713
 52      -0.000170695978
 53       0.000266968440
 54       0.000181856698
 55       0.000082516544
 56      -0.000129055842
 57      -0.000087911773
 58      -0.000025831043
 59       0.000040399740
 60       0.000027519969
 61      -0.000000000000
 62       0.000000000001
 63      -0.000000000000
 64       0.000000000001
 65      -0.000000000003
 66       0.000000000010
 67      -0.000000000009
 68       0.000000000003
 69       0.000000000002
 70       0.000000000019
 71      -0.000000000008
 72       0.000000000007
 73      -0.000000000003
 74      -0.000000000002
 75      -0.000000000014
 76       0.000000000004
 77      -0.000000000005
 78       0.000000000003
 79       0.000000000001
 80       0.000000000007
 81      -0.000000000002
 82       0.000000000003
 83      -0.000000000002
 84      -0.000000000001
 85      -0.000000000004
 86       0.000000000001
 87      -0.000000000001
 88       0.000000000001
 89       0.000000000000
 90       0.000000000002
 91      -0.000000000001
 92       0.000000000001
 93      -0.000000000001
 94      -0.000000000000
 95      -0.000000000001
 96       0.000000000000
 97      -0.000000000000
 98       0.000000000000
 99      -0.000000000000
100       0.000000000001
101      -0.000000000000
102       0.000000000000
103      -0.000000000000
104      -0.000000000001
105      -0.000000000001
106       0.000000000000
107      -0.000000000000
108       0.000000000000
109       0.000000000000
110       0.000000000000
111       0.000000000001
112       0.000000000000
113       0.000000000000
114       0.000000000001
115      -0.000000000000
116       0.000000000000
117      -0.000000000006
118      -0.000000000001
119      -0.000000000000
120      -0.000000000001
121      -0.000000000001
122      -0.000000000000
123      -0.000000000000
124       0.000000000003
125       0.000000000001
126       0.000000000000
127       0.000000000000
128       0.000000000000
129       0.000000000000
130       0.000000000000
131      -0.000000000002
132      -0.000000000000
133      -0.000000000000
134      -0.000000000000
135      -0.000000000000
136      -0.000000000000
137      -0.000000000000
138       0.000000000001
139       0.000000000000
140       0.000000000000
141       0.000000000000
142       0.000000000000
143       0.000000000000
144       0.000000000000
145      -0.000000000001
146      -0.000000000000
147      -0.000000000000
148       0.000000000000
149       0.000000000000
150      -0.000000000000
151       0.000000000000
152       0.000000000000
153       0.000000000000
154      -0.000000000000
155      -0.000000000000
156      -0.000000000000
157       0.000000000000
158      -0.000000000000
159      -0.000000000000
 Sym=     1a
 Ene= -7.50971893591459E+02
 Spin= Alpha
 Occup= 1.000000
  1      -0.000000000000
  2      -0.000000000000
  3      -0.000000000000
  4      -0.000000000000
  5      -0.000000000000
  6      -0.000000000001
  7       0.000000000001
  8      -0.000000000001
  9       0.000000000009
 10      -0.000000000014
 11       0.000000000021
 12      -0.000000000019
 13       0.000000000022
 14      -0.000000000023
 15       0.000000000018
 16      -0.000000000012
 17       0.000000000007
 18      -0.000000000003
 19       0.000000000000
 20       0.000000000001
 21      -0.000000000000
 22       0.124935405391
 23      -0.013127673009
 24       0.136539629861
 25       0.206750303493
 26      -0.021724429278
 27       0.225953642396
 28       0.306044806872
 29      -0.032157867006
 30       0.334470797301
 31       0.157812954173
 32      -0.016582303887
 33       0.172470904306
 34       0.004761955687
 35      -0.000500365750
 36       0.005204254689
 37       0.002937236721
 38      -0.000308632147
 39       0.003210052484
 40      -0.002016562562
 41       0.000211891683
 42      -0.002203864458
 43       0.001238439836
 44      -0.000130129911
 45       0.001353468317
 46      -0.000743448480
 47       0.000078118358
 48      -0.000812501291
 49       0.000440014285
 50      -0.000046234802
 51       0.000480883592
 52      -0.000246015875
 53       0.000025850287
 54      -0.000268866266
 55       0.000118927112
 56      -0.000012496348
 57       0.000129973273
 58      -0.000037229035
 59       0.000003911866
 60      -0.000040686934
 61       0.000000000000
 62       0.000000000002
 63      -0.000000000000
 64       0.000000000002
 65      -0.000000000007
 66      -0.000000000016
 67       0.000000000010
 68      -0.000000000004
 69      -0.000000000005
 70      -0.000000000024
 71       0.000000000013
 72      -0.000000000008
 73       0.000000000003
 74       0.000000000003
 75       0.000000000020
 76      -0.000000000007
 77       0.000000000004
 78       0.000000000001
 79      -0.000000000002
 80      -0.000000000012
 81       0.000000000004
 82      -0.000000000002
 83      -0.000000000002
 84       0.000000000001
 85       0.000000000007
 86      -0.000000000002
 87       0.000000000001
 88       0.000000000001
 89      -0.000000000000
 90      -0.000000000004
 91       0.000000000001
 92      -0.000000000001
 93      -0.000000000001
 94       0.000000000000
 95       0.000000000002
 96      -0.000000000000
 97       0.000000000000
 98       0.000000000000
 99      -0.000000000000
100      -0.000000000001
101       0.000000000000
102      -0.000000000000
103      -0.000000000000
104      -0.000000000001
105       0.000000000000
106      -0.000000000000
107       0.000000000000
108       0.000000000000
109       0.000000000000
110      -0.000000000000
111      -0.000000000001
112      -0.000000000001
113       0.000000000001
114      -0.000000000003
115       0.000000000002
116       0.000000000001
117      -0.000000000001
118       0.000000000001
119       0.000000000001
120      -0.000000000001
121       0.000000000002
122      -0.000000000001
123      -0.000000000001
124      -0.000000000000
125      -0.000000000001
126      -0.000000000001
127       0.000000000001
128      -0.000000000001
129       0.000000000001
130      -0.000000000000
131       0.000000000000
132       0.000000000000
133       0.000000000000
134      -0.000000000000
135       0.000000000001
136      -0.000000000001
137       0.000000000001
138      -0.000000000000
139      -0.000000000000
140      -0.000000000000
141       0.000000000000
142      -0.000000000000
143       0.000000000000
144      -0.000000000001
145      -0.000000000000
146       0.000000000001
147      -0.000000000000
148       0.000000000000
149      -0.000000000000
150      -0.000000000000
151       0.000000000001
152       0.000000000000
153      -0.000000000000
154      -0.000000000000
155      -0.000000000000
156      -0.000000000000
157      -0.000000000000
158      -0.000000000001
159       0.000000000000
 Sym=     1a
 Ene= -2.36493180785505E+02
 Spin= Alpha
 Occup= 1.000000
  1       0.020135115473
  2       0.016330653683
  3       0.026569799698
  4       0.046337236495
  5       0.071607942269
  6       0.091366966993
  7       0.011975322152
  8      -0.320527110922
  9      -0.679438032670
 10       0.273551960055
 11       0.963844718882
 12       0.109698918919
 13       0.022754276717
 14      -0.017269915514
 15       0.012020362445
 16      -0.008168466276
 17       0.005354774818
 18      -0.003337372278
 19       0.001893303365
 20      -0.000868752348
 21       0.000234242785
 22      -0.000000000002
 23       0.000000000000
 24      -0.000000000003
 25      -0.000000000004
 26       0.000000000001
 27      -0.000000000006
 28      -0.000000000006
 29       0.000000000001
 30      -0.000000000010
 31       0.000000000005
 32      -0.000000000000
 33       0.000000000010
 34       0.000000000008
 35      -0.000000000001
 36       0.000000000003
 37       0.000000000012
 38      -0.000000000005
 39       0.000000000040
 40      -0.000000000009
 41       0.000000000004
 42      -0.000000000036
 43       0.000000000013
 44      -0.000000000004
 45       0.000000000023
 46      -0.000000000012
 47       0.000000000003
 48      -0.000000000013
 49       0.000000000008
 50      -0.000000000002
 51       0.000000000007
 52      -0.000000000004
 53       0.000000000001
 54      -0.000000000004
 55       0.000000000002
 56      -0.000000000000
 57       0.000000000002
 58      -0.000000000001
 59       0.000000000000
 60      -0.000000000001
 61      -0.000000000029
 62      -0.000000000026
 63       0.000000000009
 64      -0.000000000052
 65       0.000000000028
 66      -0.000000000036
 67      -0.000000000023
 68       0.000000000009
 69      -0.000000000065
 70       0.000000000030
 71       0.000000000036
 72       0.000000000039
 73      -0.000000000011
 74       0.000000000065
 75      -0.000000000029
 76      -0.000000000001
 77      -0.000000000002
 78      -0.000000000002
 79      -0.000000000002
 80       0.000000000001
 81      -0.000000000005
 82      -0.000000000004
 83       0.000000000003
 84      -0.000000000010
 85       0.000000000004
 86      -0.000000000001
 87      -0.000000000002
 88      -0.000000000000
 89      -0.000000000003
 90       0.000000000001
 91       0.000000000001
 92       0.000000000002
 93      -0.000000000000
 94       0.000000000006
 95      -0.000000000000
 96      -0.000000000003
 97      -0.000000000004
 98       0.000000000001
 99      -0.000000000010
100       0.000000000002
101       0.000000000005
102       0.000000000005
103      -0.000000000001
104       0.000000000010
105      -0.000000000004
106      -0.000000000002
107      -0.000000000002
108       0.000000000001
109      -0.000000000004
110       0.000000000002
111       0.000000000000
112       0.000000000000
113      -0.000000000000
114      -0.000000000000
115      -0.000000000000
116      -0.000000000000
117       0.000000000001
118      -0.000000000000
119      -0.000000000000
120       0.000000000000
121      -0.000000000000
122       0.000000000000
123       0.000000000000
124      -0.000000000000
125       0.000000000000
126       0.000000000001
127      -0.000000000001
128      -0.000000000001
129      -0.000000000000
130      -0.000000000001
131      -0.000000000001
132      -0.000000000001
133      -0.000000000001
134       0.000000000001
135       0.000000000001
136       0.000000000001
137       0.000000000001
138       0.000000000001
139       0.000000000001
140       0.000000000000
141      -0.000000000001
142      -0.000000000002
143      -0.000000000001
144       0.000000000000
145       0.000000000000
146       0.000000000000
147       0.000000000000
148      -0.000000000002
149       0.000000000002
150       0.000000000000
151       0.000000000000
152      -0.000000000001
153      -0.000000000001
154      -0.000000000002
155       0.000000000004
156      -0.000000000001
157      -0.000000000000
158       0.000000000000
159       0.000000000000
 Sym=     1a
 Ene= -1.92688562121573E+02
 Spin= Alpha
 Occup= 1.000000
  1       0.000000000001
  2       0.000000000001
  3       0.000000000001
  4       0.000000000002
  5       0.000000000003
  6       0.000000000003
  7       0.000000000000
  8      -0.000000000011
  9      -0.000000000028
 10       0.000000000018
 11       0.000000000028
 12       0.000000000049
 13      -0.000000000144
 14       0.000000000206
 15      -0.000000000172
 16       0.000000000105
 17      -0.000000000048
 18      -0.000000000017
 19       0.000000000052
 20      -0.000000000049
 21       0.000000000020
 22       0.073131763350
 23      -0.011173785206
 24       0.073941147315
 25       0.129909070006
 26      -0.019848776758
 27       0.131346835403
 28       0.193744054709
 29      -0.029602109295
 30       0.195888312170
 31      -0.096967437706
 32       0.014815632361
 33      -0.098040622346
 34      -0.519557599689
 35       0.079383085468
 36      -0.525307790440
 37      -0.168110030430
 38       0.025685492701
 39      -0.169970584078
 40       0.005020163338
 41      -0.000767029614
 42       0.005075723965
 43      -0.003540904175
 44       0.000541013978
 45      -0.003580093130
 46       0.001997472155
 47      -0.000305193362
 48       0.002019579191
 49      -0.001106973606
 50       0.000169134280
 51      -0.001119225052
 52       0.000608743054
 53      -0.000093009742
 54       0.000615480339
 55      -0.000292689418
 56       0.000044719976
 57      -0.000295928775
 58       0.000091461674
 59      -0.000013974399
 60       0.000092473933
 61       0.000000000183
 62      -0.000000000119
 63       0.000000000043
 64       0.000000000054