[Molden Format]
[Title]
 Molden file created by orca_2mkl for BaseName=/data01/Nikolayandreadi/heavy/U/UO3

[Atoms] AU
U    1  92         -0.0159530680         0.0708703992        -1.0316789753 
O    2   8         -1.3862086055        -2.7480189570         0.2990321532 
O    3   8         -1.7029663898         2.7279727421         0.2605573291 
O    4   8          3.1051507401        -0.0508222946         0.4720913828 
[GTO]
  1 0
s   9 1.0 
 58915269.2040619999     15878.5363952950
 26779667.8200279996     -5784.7557541551
 12172576.2818310000      9027.3946318877
  5532989.2190140001       325.6868040056
  2514995.0995519999      4208.1243710139
  1143179.5907050001      1939.1491289669
   519627.0866840000      2669.4311026285
   236194.1303110000      2005.5172738201
   107360.9683230000      2058.9530636601
s   1 1.0 
    48800.4401470000      2340.0648682401
s   1 1.0 
    22182.0182490000      1295.4208592531
s   1 1.0 
    10082.7355680000       717.1233692609
s   1 1.0 
     4583.0616220000       396.9875296292
s   1 1.0 
     2083.2098280000       219.7656713216
s   1 1.0 
      946.9135580000       121.6586080998
s   1 1.0 
      430.4152540000        67.3481752053
s   1 1.0 
      195.6432970000        37.2828258248
s   1 1.0 
       88.9287710000        20.6391501245
s   1 1.0 
       40.4221690000        11.4254891526
s   1 1.0 
       18.3737130000         6.3249600754
s   1 1.0 
        8.3516880000         3.5013924304
s   1 1.0 
        3.7962220000         1.9383124866
s   1 1.0 
        1.7255550000         1.0730172334
s   1 1.0 
        0.7843430000         0.5940043302
s   1 1.0 
        0.3565200000         0.3288311987
s   1 1.0 
        0.1620540000         0.1820350044
s   1 1.0 
        0.0736610000         0.1007716339
s   1 1.0 
        0.0334820000         0.0557851540
s   1 1.0 
        0.0152190000         0.0308815919
p   8 1.0 
   839813.6669700000    124700.6825327761
   349922.3612380000     10799.0830937165
   145800.9838490000     36359.2991195727
    60750.4099370000     18163.2607860982
    25312.6708070000     17573.6487977577
    10546.9461700000     14195.6918408552
     4394.5609040000     13322.9302572221
     1831.0670430000     12107.7084625556
p   1 1.0 
      762.9446010000      5715.5278197986
p   1 1.0 
      317.8935840000      1913.3406184205
p   1 1.0 
      132.4556600000       640.5134283167
p   1 1.0 
       55.1898580000       214.4194529751
p   1 1.0 
       22.9957740000        71.7794502225
p   1 1.0 
        9.5815730000        24.0290224861
p   1 1.0 
        3.9923220000         8.0439996005
p   1 1.0 
        1.6634670000         2.6928231053
p   1 1.0 
        0.6931110000         0.9014540144
p   1 1.0 
        0.2887960000         0.3017720791
p   1 1.0 
        0.1203320000         0.1010221266
p   1 1.0 
        0.0501380000         0.0338180721
d   7 1.0 
    41049.8202270000     53262.0337640016
    16419.9280910000     26338.4031025142
     6567.9712360000     29332.4246479962
     2627.1884950000     27101.6066256769
     1050.8753980000     28990.3214062957
      420.3501590000     26289.6282344813
      168.1400640000     17820.8132210096
d   1 1.0 
       67.2560250000      4502.9764563892
d   1 1.0 
       26.9024100000       905.9509006942
d   1 1.0 
       10.7609640000       182.2676717095
d   1 1.0 
        4.3043860000        36.6703201328
d   1 1.0 
        1.7217540000         7.3776748265
d   1 1.0 
        0.6887020000         1.4843111023
d   1 1.0 
        0.2754810000         0.2986279634
d   1 1.0 
        0.1101920000         0.0600803838
d   1 1.0 
        0.0440770000         0.0120876293
f   6 1.0 
     4391.9602590000     58042.2322349557
     1689.2154840000     50234.6786083959
      649.6982630000     55932.1636963999
      249.8839470000     54589.9728655915
       96.1092110000     39385.8448814677
       36.9650810000     15829.5183325708
f   1 1.0 
       14.2173390000      2237.9031973610
f   1 1.0 
        5.4682070000       260.7061095750
f   1 1.0 
        2.1031570000        30.3711607432
f   1 1.0 
        0.8089060000         3.5381049160
f   1 1.0 
        0.3111180000         0.4121749941
f   1 1.0 
        0.1196610000         0.0480168308

  2 0
s   6 1.0 
    27032.3826310000         1.4645050749
     4052.3871392000         1.8244031008
      922.3272271000         2.8547160967
      261.2407098900         4.3654874290
       85.3546413500         5.8940772662
       31.0350352400         6.2963020147
s   1 1.0 
       12.2608607300         4.6698272139
s   1 1.0 
        4.9987076000         2.3826123703
s   1 1.0 
        1.1703108200         0.8019291632
s   1 1.0 
        0.4647474100        -0.4011648063
s   1 1.0 
        0.1850453600         0.2010799377
p   4 1.0 
       63.2749548000         3.0898340730
       14.6270493800         3.3923831935
        4.4501223500         2.9482801524
        1.5275799600         1.7113350234
p   1 1.0 
        0.5293511800         0.6436057935
p   1 1.0 
        0.1747842100         0.1610897223
d   1 1.0 
        2.3140000000        12.3767310624
d   1 1.0 
        0.6450000000         1.3234257612
f   1 1.0 
        1.4280000000        12.7097950062

  3 0
s   6 1.0 
    27032.3826310000         1.4645050749
     4052.3871392000         1.8244031008
      922.3272271000         2.8547160967
      261.2407098900         4.3654874290
       85.3546413500         5.8940772662
       31.0350352400         6.2963020147
s   1 1.0 
       12.2608607300         4.6698272139
s   1 1.0 
        4.9987076000         2.3826123703
s   1 1.0 
        1.1703108200         0.8019291632
s   1 1.0 
        0.4647474100        -0.4011648063
s   1 1.0 
        0.1850453600         0.2010799377
p   4 1.0 
       63.2749548000         3.0898340730
       14.6270493800         3.3923831935
        4.4501223500         2.9482801524
        1.5275799600         1.7113350234
p   1 1.0 
        0.5293511800         0.6436057935
p   1 1.0 
        0.1747842100         0.1610897223
d   1 1.0 
        2.3140000000        12.3767310624
d   1 1.0 
        0.6450000000         1.3234257612
f   1 1.0 
        1.4280000000        12.7097950062

  4 0
s   6 1.0 
    27032.3826310000         1.4645050749
     4052.3871392000         1.8244031008
      922.3272271000         2.8547160967
      261.2407098900         4.3654874290
       85.3546413500         5.8940772662
       31.0350352400         6.2963020147
s   1 1.0 
       12.2608607300         4.6698272139
s   1 1.0 
        4.9987076000         2.3826123703
s   1 1.0 
        1.1703108200         0.8019291632
s   1 1.0 
        0.4647474100        -0.4011648063
s   1 1.0 
        0.1850453600         0.2010799377
p   4 1.0 
       63.2749548000         3.0898340730
       14.6270493800         3.3923831935
        4.4501223500         2.9482801524
        1.5275799600         1.7113350234
p   1 1.0 
        0.5293511800         0.6436057935
p   1 1.0 
        0.1747842100         0.1610897223
d   1 1.0 
        2.3140000000        12.3767310624
d   1 1.0 
        0.6450000000         1.3234257612
f   1 1.0 
        1.4280000000        12.7097950062

[5D]
[7F]
[9G]
[MO]
 Sym=     1a
 Ene= -4.26063381452907E+03
 Spin= Alpha
 Occup= 2.000000
  1       0.084983960671
  2       0.065169454849
  3       0.111711666249
  4       0.177550113699
  5       0.264431307625
  6       0.303181684663
  7       0.192924343426
  8       0.032220681814
  9       0.000869337777
 10      -0.000612492467
 11       0.000447761638
 12      -0.000332752125
 13       0.000237638614
 14      -0.000161480313
 15       0.000109331074
 16      -0.000075277275
 17       0.000050784694
 18      -0.000029698985
 19       0.000008648986
 20      -0.000004654685
 21       0.000001339635
 22      -0.000000011562
 23       0.000000016777
 24      -0.000000177335
 25      -0.000000008450
 26      -0.000000006851
 27       0.000000155577
 28      -0.000000003288
 29      -0.000000002938
 30       0.000000071677
 31      -0.000000001938
 32      -0.000000001301
 33       0.000000011530
 34       0.000000002497
 35       0.000000001543
 36      -0.000000001192
 37      -0.000000004053
 38      -0.000000002450
 39      -0.000000009624
 40       0.000000007842
 41       0.000000003901
 42       0.000000008214
 43      -0.000000012763
 44      -0.000000004963
 45      -0.000000041878
 46       0.000000014526
 47       0.000000003911
 48       0.000000187765
 49       0.000000019945
 50       0.000000006687
 51      -0.000000724895
 52      -0.000000110570
 53      -0.000000042203
 54       0.000001695853
 55       0.000000290149
 56       0.000000276379
 57      -0.000003280407
 58      -0.000000013920
 59      -0.000000051997
 60       0.000000399777
 61      -0.000000020243
 62       0.000000001170
 63      -0.000000000622
 64       0.000000000284
 65       0.000000001200
 66      -0.000000002070
 67      -0.000000000039
 68      -0.000000000112
 69      -0.000000002411
 70      -0.000000004041
 71      -0.000000045928
 72       0.000000001623
 73      -0.000000002943
 74      -0.000000004694
 75      -0.000000004842
 76       0.000000063430
 77      -0.000000001198
 78       0.000000006265
 79       0.000000010369
 80       0.000000010300
 81      -0.000000110963
 82       0.000000001097
 83      -0.000000012115
 84      -0.000000021003
 85      -0.000000020466
 86       0.000000189562
 87       0.000000000683
 88       0.000000021425
 89       0.000000038950
 90       0.000000034751
 91      -0.000000168779
 92      -0.000000009239
 93      -0.000000030477
 94      -0.000000045744
 95      -0.000000023077
 96      -0.000000233279
 97       0.000000005617
 98       0.000000031358
 99      -0.000000035917
100      -0.000000095985
101       0.000001219184
102      -0.000000014055
103       0.000000109015
104       0.000000272649
105       0.000000306317
106      -0.000000220457
107       0.000000010050
108      -0.000000028839
109      -0.000000034892
110      -0.000000032462
111      -0.000000019248
112       0.000000001745
113      -0.000000000242
114      -0.000000000385
115      -0.000000001741
116      -0.000000025020
117      -0.000000002084
118       0.000000054361
119      -0.000000004955
120       0.000000000721
121       0.000000001235
122       0.000000005119
123       0.000000071129
124       0.000000005948
125      -0.000000116063
126       0.000000010682
127      -0.000000001568
128      -0.000000002893
129      -0.000000010780
130      -0.000000153003
131      -0.000000012850
132       0.000000223319
133      -0.000000020791
134       0.000000003089
135       0.000000006642
136       0.000000020377
137       0.000000294871
138       0.000000024967
139      -0.000000342167
140       0.000000032706
141      -0.000000005058
142      -0.000000014261
143      -0.000000028964
144      -0.000000443636
145      -0.000000038379
146      -0.000000054025
147       0.000000003752
148      -0.000000001436
149      -0.000000012324
150      -0.000000029626
151      -0.000000133505
152      -0.000000011661
153       0.000000587965
154      -0.000000055742
155       0.000000018895
156       0.000000057216
157       0.000000104402
158       0.000000875085
159       0.000000076399
160      -0.000000024191
161       0.000000114666
162      -0.000000230782
163       0.000000862469
164       0.000001595147
165       0.000003483543
166       0.000000050240
167       0.000000098496
168      -0.000000062771
169      -0.000000232115
170      -0.000000456221
171       0.000000271788
172       0.000000544935
173       0.000000948279
174      -0.000000571713
175       0.000000004419
176      -0.000000011997
177      -0.000000018011
178      -0.000000011075
179       0.000000011999
180       0.000000108044
181       0.000000156668
182       0.000000302429
183       0.000000234357
184      -0.000000292315
185      -0.000000083778
186       0.000000009432
187       0.000000016821
188      -0.000000074001
189       0.000000094910
190      -0.000000114124
191      -0.000000020615
192      -0.000000025211
193       0.000000119393
194      -0.000000239879
195       0.000000892903
196       0.000001639941
197       0.000003488596
198       0.000000065171
199      -0.000000099060
200      -0.000000063840
201      -0.000000304492
202       0.000000467450
203       0.000000281136
204       0.000000545476
205      -0.000000833362
206      -0.000000551108
207      -0.000000000397
208      -0.000000013481
209       0.000000021272
210      -0.000000007110
211      -0.000000018694
212       0.000000133130
213       0.000000189005
214      -0.000000297921
215       0.000000166428
216       0.000000364512
217      -0.000000084568
218       0.000000012965
219      -0.000000019802
220      -0.000000050725
221      -0.000000109039
222      -0.000000119134
223      -0.000000015672
224      -0.000000024324
225       0.000000115066
226      -0.000000229775
227       0.000000803986
228       0.000001385523
229       0.000002919618
230      -0.000000113056
231       0.000000004565
232      -0.000000070538
233       0.000000427401
234      -0.000000015520
235       0.000000261104
236      -0.000000908061
237      -0.000000027353
238      -0.000000553773
239       0.000000002431
240       0.000000033780
241       0.000000001249
242       0.000000027884
243      -0.000000005285
244       0.000000076145
245      -0.000000356028
246       0.000000006234
247      -0.000000348199
248       0.000000036656
249      -0.000000094889
250      -0.000000001255
251      -0.000000000708
252       0.000000142064
253      -0.000000010795
254      -0.000000121265
255       0.000000010572
 Sym=     1a
 Ene= -8.04590758759701E+02
 Spin= Alpha
 Occup= 2.000000
  1      -0.035876951190
  2      -0.029713753585
  3      -0.049764655310
  4      -0.086682856706
  5      -0.138726174454
  6      -0.177776981106
  7      -0.072230142050
  8       0.369136870237
  9       0.610965706414
 10       0.169957826008
 11      -0.002094372176
 12       0.001804692111
 13      -0.000970030740
 14       0.000505791161
 15      -0.000287679250
 16       0.000187753591
 17      -0.000124111414
 18       0.000071650750
 19      -0.000020895389
 20       0.000011187963
 21      -0.000003214849
 22      -0.000000300580
 23      -0.000000264386
 24       0.000004838497
 25      -0.000000494335
 26      -0.000000409670
 27       0.000007411256
 28      -0.000000919663
 29      -0.000000625812
 30       0.000013400244
 31      -0.000000615331
 32      -0.000000598504
 33       0.000009244239
 34      -0.000000048985
 35      -0.000000183050
 36       0.000001073917
 37      -0.000000018715
 38       0.000000024859
 39       0.000000414898
 40      -0.000000004469
 41      -0.000000028959
 42      -0.000000069377
 43       0.000000024704
 44       0.000000022860
 45       0.000000085467
 46      -0.000000028096
 47      -0.000000008389
 48      -0.000000563824
 49      -0.000000048484
 50      -0.000000016020
 51       0.000001802692
 52       0.000000250520
 53       0.000000097677
 54      -0.000004020529
 55      -0.000000687044
 56      -0.000000655406
 57       0.000007820724
 58       0.000000033070
 59       0.000000123974
 60      -0.000000951366
 61      -0.000000341686
 62       0.000000079850
 63      -0.000000109317
 64       0.000000117040
 65       0.000000190840
 66       0.000001338144
 67      -0.000000077115
 68       0.000000093707
 69       0.000000184425
 70       0.000000246148
 71      -0.000000069501
 72       0.000000022477
 73      -0.000000047571
 74      -0.000000025264
 75      -0.000000022354
 76       0.000000111034
 77      -0.000000019012
 78       0.000000020206
 79       0.000000009980
 80       0.000000014902
 81       0.000000043351
 82       0.000000011803
 83       0.000000010195
 84       0.000000025457
 85       0.000000018483
 86      -0.000000409609
 87      -0.000000004080
 88      -0.000000043551
 89      -0.000000085345
 90      -0.000000076896
 91       0.000000321705
 92       0.000000024601
 93       0.000000065135
 94       0.000000096011
 95       0.000000041478
 96       0.000000591255
 97      -0.000000020418
 98      -0.000000070839
 99       0.000000084179
100       0.000000233321
101      -0.000002924315
102       0.000000037351
103      -0.000000259882
104      -0.000000646975
105      -0.000000731954
106       0.000000529639
107      -0.000000024573
108       0.000000069326
109       0.000000083508
110       0.000000078215
111      -0.000000366107
112       0.000000033142
113      -0.000000003293
114      -0.000000001627
115      -0.000000020233
116      -0.000000466152
117      -0.000000038060
118       0.000000000237
119      -0.000000000337
120      -0.000000001108
121      -0.000000002267
122      -0.000000008585
123       0.000000002900
124       0.000000000065
125       0.000000247844
126      -0.000000022177
127       0.000000003856
128       0.000000006487
129       0.000000028515
130       0.000000318773
131       0.000000026652
132      -0.000000484703
133       0.000000044885
134      -0.000000006988
135      -0.000000014128
136      -0.000000046769
137      -0.000000636942
138      -0.000000053811
139       0.000000759008
140      -0.000000072576
141       0.000000011425
142       0.000000031066
143       0.000000064592
144       0.000000980725
145       0.000000084731
146       0.000000154478
147      -0.000000011463
148       0.000000003728
149       0.000000026630
150       0.000000071799
151       0.000000358358
152       0.000000030790
153      -0.000001410040
154       0.000000133469
155      -0.000000044696
156      -0.000000133757
157      -0.000000248906
158      -0.000002099264
159      -0.000000182959
160       0.000000050526
161      -0.000000252728
162       0.000000517446
163      -0.000002011243
164      -0.000003790678
165      -0.000008308053
166      -0.000000113236
167      -0.000000221578
168       0.000000143238
169       0.000000551723
170       0.000001087574
171      -0.000000653483
172      -0.000001300361
173      -0.000002267897
174       0.000001369331
175      -0.000000014973
176       0.000000024041
177       0.000000034048
178       0.000000019156
179      -0.000000019255
180      -0.000000248709
181      -0.000000366830
182      -0.000000709141
183      -0.000000546989
184       0.000000681039
185       0.000000188571
186      -0.000000021086
187      -0.000000037083
188       0.000000166857
189      -0.000000213537
190       0.000000256829
191       0.000000046157
192       0.000000052743
193      -0.000000263492
194       0.000000538409
195      -0.000002082915
196      -0.000003900019
197      -0.000008326921
198      -0.000000146897
199       0.000000223060
200       0.000000145812
201       0.000000725066
202      -0.000001113416
203      -0.000000675647
204      -0.000001305167
205       0.000001995140
206       0.000001320042
207      -0.000000004045
208       0.000000026722
209      -0.000000042263
210       0.000000011800
211       0.000000033250
212      -0.000000307241
213      -0.000000443010
214       0.000000698478
215      -0.000000387982
216      -0.000000849614
217       0.000000190104
218      -0.000000028689
219       0.000000043797
220       0.000000114088
221       0.000000245161
222       0.000000267864
223       0.000000035153
224       0.000000051134
225      -0.000000255290
226       0.000000518872
227      -0.000001885211
228      -0.000003306868
229      -0.000006969929
230       0.000000258618
231      -0.000000010466
232       0.000000162712
233      -0.000001028621
234       0.000000038792
235      -0.000000632584
236       0.000002170368
237       0.000000063201
238       0.000001325777
239      -0.000000009041
240      -0.000000070655
241      -0.000000003195
242      -0.000000056208
243       0.000000011749
244      -0.000000176221
245       0.000000840441
246      -0.000000015271
247       0.000000818397
248      -0.000000086826
249       0.000000217382
250       0.000000002280
251       0.000000001816
252      -0.000000325678
253       0.000000024962
254       0.000000277858
255      -0.000000024079
 Sym=     1a
 Ene= -6.75246246152470E+02
 Spin= Alpha
 Occup= 2.000000
  1       0.000000035486
  2       0.000000029326
  3       0.000000050178
  4       0.000000084235
  5       0.000000144689
  6       0.000000163363
  7       0.000000094951
  8      -0.000000499679
  9      -0.000000543670
 10      -0.000000210308
 11       0.000000573295
 12      -0.000000910305
 13       0.000001476685
 14      -0.000002489364
 15       0.000004218323
 16      -0.000005999788
 17       0.000004805498
 18       0.000003759493
 19      -0.000009575442
 20       0.000002523287
 21      -0.000000504089
 22      -0.158231507666
 23      -0.081249036853
 24      -0.009759264005
 25      -0.269355495076
 26      -0.138309211787
 27      -0.016613071991
 28      -0.405901744278
 29      -0.208423258006
 30      -0.025034832081
 31      -0.213507701124
 32      -0.109632421127
 33      -0.013168482735
 34      -0.007157055341
 35      -0.003674967699
 36      -0.000441642048
 37      -0.003895967411
 38      -0.002000617046
 39      -0.000239992871
 40       0.002707104178
 41       0.001390239207
 42       0.000166487798
 43      -0.001682068125
 44      -0.000864010300
 45      -0.000102987059
 46       0.001044221844
 47       0.000536547686
 48       0.000063299792
 49      -0.000678795840
 50      -0.000348720732
 51      -0.000040590300
 52       0.000454990456
 53       0.000232651672
 54       0.000027394649
 55      -0.000353974611
 56      -0.000176813261
 57      -0.000019839683
 58       0.000039154299
 59       0.000019365360
 60       0.000002647827
 61      -0.000000628029
 62      -0.000005393480
 63      -0.000002726217
 64      -0.000000726319
 65       0.000000830256
 66      -0.000000080747
 67      -0.000000184152
 68      -0.000000109172
 69       0.000000797261
 70      -0.000000246405
 71      -0.000000152850
 72      -0.000001718020
 73      -0.000000870950
 74      -0.000002109031
 75       0.000001039991
 76       0.000000245231
 77       0.000002558020
 78       0.000001338928
 79       0.000003285241
 80      -0.000001644405
 81      -0.000000445872
 82      -0.000004563499
 83      -0.000002409707
 84      -0.000005945662
 85       0.000002989579
 86       0.000000835184
 87       0.000009301236
 88       0.000004840755
 89       0.000012156603
 90      -0.000006058735
 91      -0.000001541131
 92      -0.000022700236
 93      -0.000011386026
 94      -0.000029313040
 95       0.000014293648
 96       0.000002393741
 97       0.000047635592
 98       0.000023431996
 99       0.000060948356
100      -0.000029486775
101      -0.000004117879
102      -0.000097439437
103      -0.000044129220
104      -0.000127690597
105       0.000058030268
106       0.000000304917
107       0.000009147384
108       0.000003960606
109       0.000010338666
110      -0.000004463585
111      -0.000000046640
112      -0.000000275004
113      -0.000000128100
114      -0.000000208670
115       0.000000096566
116      -0.000000006550
117       0.000000180768
118       0.000000083657
119       0.000000189468
120       0.000000046535
121       0.000000845069
122      -0.000000412984
123       0.000000106478
124      -0.000000000332
125      -0.000000168170
126      -0.000000084492
127       0.000000070361
128      -0.000001913747
129       0.000000948116
130      -0.000000279338
131      -0.000000224986
132       0.000000311231
133      -0.000000110840
134      -0.000000297130
135       0.000004139201
136      -0.000002044496
137       0.000000579459
138       0.000000622481
139      -0.000000357319
140       0.000000531594
141       0.000000889018
142      -0.000011429992
143       0.000005444683
144      -0.000000945969
145      -0.000001773309
146      -0.000000465656
147      -0.000002115331
148      -0.000003038431
149       0.000037752986
150      -0.000017505429
151       0.000000882461
152       0.000005848820
153       0.000001339255
154       0.000001785032
155       0.000003968260
156      -0.000056844649
157       0.000024721899
158      -0.000000448581
159      -0.000006181965
160       0.000000989842
161      -0.000004655528
162       0.000008959140
163      -0.000037885120
164      -0.000116923245
165      -0.000227532015
166      -0.000000985142
167      -0.000000386589
168      -0.000000019709
169       0.000019061033
170       0.000032852195
171      -0.000014654903
172      -0.000024782006
173      -0.000037973096
174       0.000016479986
175      -0.000000667513
176      -0.000001075385
177      -0.000002246202
178      -0.000002117654
179       0.000001856872
180      -0.000002007445
181      -0.000000863646
182      -0.000002718365
183      -0.000001396353
184       0.000003008855
185      -0.000004125107
186       0.000000686978
187       0.000001193639
188      -0.000003733247
189       0.000004776023
190      -0.000005678472
191      -0.000001083839
192       0.000000048966
193      -0.000000228130
194       0.000000439384
195      -0.000002193499
196      -0.000007710462
197      -0.000018440051
198      -0.000001263662
199      -0.000000892038
200      -0.000000096263
201       0.000005782825
202       0.000001040259
203      -0.000000758599
204      -0.000015718609
205      -0.000004292141
206       0.000000858856
207      -0.000000074936
208      -0.000000153618
209       0.000000235324
210      -0.000001126164
211       0.000000240471
212       0.000000078766
213       0.000000742731
214       0.000000462285
215       0.000001597789
216      -0.000000695819
217      -0.000000404637
218      -0.000000208204
219      -0.000000327487
220       0.000000189396
221      -0.000000677811
222      -0.000000592442
223       0.000000340413
224      -0.000001225186
225       0.000005819714
226      -0.000011344798
227       0.000046140085
228       0.000131084287
229       0.000255019436
230      -0.000002284782
231      -0.000000430809
232      -0.000000728776
233       0.000042786635
234       0.000000520937
235       0.000019003621
236      -0.000053708604
237      -0.000001600440
238      -0.000022537226
239       0.000000389915
240      -0.000002362118
241       0.000000163418
242      -0.000002362688
243       0.000000520116
244       0.000002805029
245      -0.000006096748
246       0.000000345387
247      -0.000006231593
248      -0.000000079999
249       0.000003580710
250       0.000000412349
251       0.000000090292
252      -0.000005412883
253       0.000000333932
254       0.000004623361
255      -0.000000275779
 Sym=     1a
 Ene= -6.75246042009822E+02
 Spin= Alpha
 Occup= 2.000000
  1      -0.000001002260
  2      -0.000000832868
  3      -0.000001385565
  4      -0.000002445163
  5      -0.000003851510
  6      -0.000005153320
  7      -0.000001649671
  8       0.000011083200
  9       0.000016907285
 10       0.000003851528
 11      -0.000000820094
 12      -0.000001355126
 13      -0.000000118373
 14       0.000002359816
 15      -0.000008627673
 16       0.000030003952
 17      -0.000072438649
 18       0.000116686040
 19      -0.000193682411
 20       0.000056053183
 21      -0.000012639467
 22      -0.030494318369
 23       0.078257180583
 24      -0.157097882236
 25      -0.051910080316
 26       0.133216186588
 27      -0.267425726615
 28      -0.078225305393
 29       0.200748598352
 30      -0.402993692168
 31      -0.041147004651
 32       0.105595159125
 33      -0.211977130745
 34      -0.001379082523
 35       0.003539351511
 36      -0.007110425575
 37      -0.000751015814
 38       0.001927105447
 39      -0.003861540322
 40       0.000521902207
 41      -0.001339057860
 42       0.002677079234
 43      -0.000324429000
 44       0.000831963630
 45      -0.001651974100
 46       0.000201751032
 47      -0.000515833351
 48       0.001004782198
 49      -0.000132011791
 50       0.000332107442
 51      -0.000615332311
 52       0.000090658517
 53      -0.000216300059
 54       0.000364588472
 55      -0.000080630555
 56       0.000172748850
 57      -0.000211669150
 58       0.000008843771
 59      -0.000020994326
 60       0.000042947369
 61      -0.000004858133
 62      -0.000000816190
 63       0.000002993377
 64       0.000000075632
 65      -0.000000522660
 66      -0.000001322887
 67       0.000000025959
 68       0.000000197267
 69       0.000000164850
 70       0.000000417794
 71       0.000000700754
 72      -0.000000370139
 73       0.000000971198
 74      -0.000000120257
 75      -0.000000926349
 76      -0.000000884270
 77       0.000000520815
 78      -0.000001498723
 79       0.000000130485
 80       0.000001447756
 81       0.000001416844
 82      -0.000000906282
 83       0.000002687276
 84      -0.000000192148
 85      -0.000002571058
 86      -0.000002678045
 87       0.000001859703
 88      -0.000005260658
 89       0.000000469028
 90       0.000005018900
 91       0.000004943583
 92      -0.000004623037
 93       0.000011198651
 94      -0.000001868535
 95      -0.000010789985
 96      -0.000006503072
 97       0.000009499267
 98      -0.000019533674
 99       0.000005240934
100       0.000019062144
101       0.000013564477
102      -0.000024997179
103       0.000043264312
104      -0.000017552379
105      -0.000045126574
106      -0.000001551067
107       0.000002802981
108      -0.000004443025
109       0.000001933385
110       0.000004342980
111      -0.000000247483
112      -0.000000091271
113       0.000000173845
114      -0.000000093266
115      -0.000000215077
116       0.000000377274
117       0.000000001970
118      -0.000000514766
119       0.000000119573
120      -0.000000068334
121       0.000000098140
122       0.000000450400
123      -0.000000911862
124      -0.000000059368
125       0.000001437550
126      -0.000000171611
127      -0.000000057076
128      -0.000000122713
129      -0.000000894400
130       0.000001892075
131       0.000000155283
132      -0.000003093935
133       0.000000278343
134       0.000000272137
135       0.000000210893
136       0.000001800561