[Molden Format]
[Title]
 Molden file created by orca_2mkl for BaseName=/home/nikolayandreadi/elements/Pu

[Atoms] AU
Pu   1  94          0.0000000000         0.0000000000         0.0000000000 
[GTO]
  1 0
s   9 1.0 
 61522220.6225290000     17063.6754636881
 27964645.7375129983     -6251.6280422765
 12711202.6079610009      9671.6986576994
  5777819.3672550004       289.2210734849
  2626281.5305699999      4464.1627617163
  1193764.3320770001      2006.5541689788
   542620.1509440000      2788.3025657130
   246645.5231560000      2062.8458110195
   112111.6014350000      2113.6106705618
s   1 1.0 
    50959.8188340000      2417.3024864446
s   1 1.0 
    23163.5540150000      1338.1783156871
s   1 1.0 
    10528.8881890000       740.7931835960
s   1 1.0 
     4785.8582680000       410.0907438407
s   1 1.0 
     2175.3901220000       227.0193920667
s   1 1.0 
      988.8136920000       125.6741468865
s   1 1.0 
      449.4607690000        69.5711104117
s   1 1.0 
      204.3003500000        38.5134057612
s   1 1.0 
       92.8637950000        21.3203786259
s   1 1.0 
       42.2108160000        11.8026058245
s   1 1.0 
       19.1867350000         6.5337257345
s   1 1.0 
        8.7212430000         3.6169614730
s   1 1.0 
        3.9642010000         2.0022893726
s   1 1.0 
        1.8019100000         1.1084341915
s   1 1.0 
        0.8190500000         0.6136106705
s   1 1.0 
        0.3722950000         0.3396843160
s   1 1.0 
        0.1692250000         0.1880435685
s   1 1.0 
        0.0769210000         0.1040983350
s   1 1.0 
        0.0349640000         0.0576269887
s   1 1.0 
        0.0158930000         0.0319017498
p   8 1.0 
   879013.3813660000    139189.6694195126
   366255.5755690000     11873.5310695809
   152606.4898210000     40255.8773916045
    63586.0374250000     19887.9699123185
    26494.1822610000     19138.0697118639
    11039.2426090000     15284.2547358037
     4599.6844200000     14199.0747202623
     1916.5351750000     12759.1191870144
p   1 1.0 
      798.5563230000      6050.9286073116
p   1 1.0 
      332.7318010000      2025.6199998139
p   1 1.0 
      138.6382510000       678.1002843303
p   1 1.0 
       57.7659380000       227.0021001283
p   1 1.0 
       24.0691410000        75.9916416591
p   1 1.0 
       10.0288090000        25.4391026723
p   1 1.0 
        4.1786700000         8.5160397883
p   1 1.0 
        1.7411130000         2.8508461829
p   1 1.0 
        0.7254640000         0.9543549283
p   1 1.0 
        0.3022760000         0.3194807322
p   1 1.0 
        0.1259490000         0.1069506658
p   1 1.0 
        0.0524790000         0.0358032150
d   7 1.0 
    43223.8765000000     60764.0080375267
    17289.5506000000     29755.0800020834
     6915.8202400000     32871.2311092175
     2766.3280960000     30065.6700485816
     1106.5312380000     31905.5201083940
      442.6124950000     28787.6778141197
      177.0449980000     19499.0030796932
d   1 1.0 
       70.8179990000      4928.5761768021
d   1 1.0 
       28.3272000000       991.5770557751
d   1 1.0 
       11.3308800000       199.4947420861
d   1 1.0 
        4.5323520000        40.1362172392
d   1 1.0 
        1.8129410000         8.0749809665
d   1 1.0 
        0.7251760000         1.6245985936
d   1 1.0 
        0.2900710000         0.3268531162
d   1 1.0 
        0.1160280000         0.0657589689
d   1 1.0 
        0.0464110000         0.0132299043
f   6 1.0 
     4758.8680260000     68069.5976130275
     1830.3338560000     59148.9500505355
      703.9745600000     64844.9511990799
      270.7594460000     63667.3327460647
      104.1382490000     46445.9881466115
       40.0531730000     19036.1414891793
f   1 1.0 
       15.4050660000      2680.6684110836
f   1 1.0 
        5.9250260000       312.2864675901
f   1 1.0 
        2.2788560000        36.3800311270
f   1 1.0 
        0.8764830000         4.2381170555
f   1 1.0 
        0.3371090000         0.4937230016
f   1 1.0 
        0.1296570000         0.0575163091

[5D]
[9G]
[MO]
 Sym=     1a
 Ene= -4.48818310908393E+03
 Spin= Alpha
 Occup= 1.000000
  1       0.089708019564
  2       0.067509968316
  3       0.114800141452
  4       0.180028769527
  5       0.264902516128
  6       0.299424568004
  7       0.188403538560
  8       0.030965384496
  9       0.000917932524
 10      -0.000656775899
 11       0.000477167549
 12      -0.000350417875
 13       0.000247996258
 14      -0.000166769096
 15       0.000110292336
 16      -0.000072511990
 17       0.000046756754
 18      -0.000028919169
 19       0.000016341498
 20      -0.000007484127
 21       0.000002016176
 22       0.000000000000
 23      -0.000000000000
 24      -0.000000000000
 25      -0.000000000000
 26       0.000000000000
 27       0.000000000000
 28       0.000000000000
 29      -0.000000000000
 30      -0.000000000000
 31       0.000000000000
 32       0.000000000000
 33       0.000000000000
 34      -0.000000000000
 35      -0.000000000000
 36      -0.000000000000
 37       0.000000000000
 38       0.000000000000
 39       0.000000000000
 40      -0.000000000000
 41      -0.000000000000
 42      -0.000000000000
 43       0.000000000000
 44       0.000000000000
 45       0.000000000000
 46      -0.000000000000
 47      -0.000000000000
 48      -0.000000000000
 49       0.000000000000
 50       0.000000000000
 51       0.000000000000
 52      -0.000000000000
 53      -0.000000000000
 54      -0.000000000000
 55       0.000000000000
 56       0.000000000000
 57       0.000000000000
 58      -0.000000000000
 59      -0.000000000000
 60      -0.000000000000
 61       0.000000000001
 62       0.000000000000
 63      -0.000000000000
 64       0.000000000001
 65      -0.000000000000
 66       0.000000000000
 67       0.000000000000
 68      -0.000000000000
 69       0.000000000000
 70      -0.000000000000
 71       0.000000000001
 72       0.000000000000
 73      -0.000000000000
 74       0.000000000000
 75      -0.000000000000
 76      -0.000000000000
 77      -0.000000000000
 78       0.000000000000
 79      -0.000000000000
 80       0.000000000000
 81      -0.000000000000
 82      -0.000000000000
 83       0.000000000000
 84      -0.000000000000
 85       0.000000000000
 86      -0.000000000000
 87      -0.000000000000
 88       0.000000000000
 89      -0.000000000000
 90       0.000000000000
 91      -0.000000000000
 92      -0.000000000000
 93       0.000000000000
 94      -0.000000000000
 95       0.000000000000
 96       0.000000000000
 97       0.000000000000
 98      -0.000000000000
 99      -0.000000000000
100       0.000000000000
101      -0.000000000000
102      -0.000000000000
103       0.000000000000
104      -0.000000000000
105       0.000000000000
106       0.000000000000
107       0.000000000000
108      -0.000000000000
109       0.000000000000
110       0.000000000000
111      -0.000000000000
112       0.000000000000
113      -0.000000000000
114       0.000000000000
115       0.000000000000
116       0.000000000000
117      -0.000000000000
118       0.000000000000
119      -0.000000000000
120       0.000000000000
121      -0.000000000000
122       0.000000000000
123       0.000000000000
124       0.000000000000
125      -0.000000000000
126       0.000000000000
127      -0.000000000000
128       0.000000000000
129      -0.000000000000
130      -0.000000000000
131       0.000000000000
132       0.000000000000
133      -0.000000000000
134       0.000000000000
135      -0.000000000000
136      -0.000000000000
137       0.000000000000
138      -0.000000000000
139       0.000000000000
140       0.000000000000
141      -0.000000000000
142       0.000000000000
143       0.000000000000
144      -0.000000000000
145       0.000000000000
146      -0.000000000000
147      -0.000000000000
148       0.000000000000
149       0.000000000000
150      -0.000000000000
151       0.000000000000
152      -0.000000000000
153       0.000000000000
154       0.000000000000
155      -0.000000000000
156      -0.000000000000
157       0.000000000000
158      -0.000000000000
159      -0.000000000000
 Sym=     1a
 Ene= -8.53849960883379E+02
 Spin= Alpha
 Occup= 1.000000
  1      -0.038294960710
  2      -0.031157623456
  3      -0.051669752767
  4      -0.088897507468
  5      -0.140010294108
  6      -0.175207391514
  7      -0.061929631290
  8       0.380752211564
  9       0.603135888831
 10       0.160386028482
 11      -0.001795716156
 12       0.001354453709
 13      -0.000657630150
 14       0.000297695268
 15      -0.000145414801
 16       0.000086379552
 17      -0.000053417006
 18       0.000032009873
 19      -0.000017906001
 20       0.000008159439
 21      -0.000002193180
 22      -0.000000000000
 23      -0.000000000000
 24       0.000000000000
 25      -0.000000000000
 26      -0.000000000000
 27       0.000000000000
 28      -0.000000000000
 29      -0.000000000000
 30       0.000000000000
 31      -0.000000000000
 32      -0.000000000000
 33       0.000000000000
 34      -0.000000000000
 35      -0.000000000000
 36       0.000000000000
 37       0.000000000000
 38       0.000000000000
 39      -0.000000000000
 40       0.000000000000
 41      -0.000000000000
 42      -0.000000000000
 43      -0.000000000000
 44       0.000000000000
 45       0.000000000000
 46       0.000000000000
 47      -0.000000000000
 48      -0.000000000000
 49       0.000000000000
 50       0.000000000000
 51      -0.000000000000
 52      -0.000000000000
 53      -0.000000000000
 54       0.000000000000
 55       0.000000000000
 56       0.000000000000
 57      -0.000000000000
 58      -0.000000000000
 59      -0.000000000000
 60      -0.000000000000
 61       0.000000000010
 62       0.000000000000
 63      -0.000000000000
 64       0.000000000006
 65      -0.000000000001
 66      -0.000000000043
 67      -0.000000000001
 68       0.000000000003
 69      -0.000000000026
 70       0.000000000004
 71       0.000000000003
 72       0.000000000000
 73      -0.000000000000
 74       0.000000000001
 75      -0.000000000000
 76      -0.000000000008
 77      -0.000000000000
 78       0.000000000001
 79      -0.000000000005
 80       0.000000000001
 81       0.000000000008
 82       0.000000000000
 83      -0.000000000001
 84       0.000000000005
 85      -0.000000000001
 86       0.000000000000
 87       0.000000000000
 88       0.000000000000
 89       0.000000000000
 90      -0.000000000000
 91       0.000000000002
 92       0.000000000000
 93      -0.000000000000
 94       0.000000000001
 95      -0.000000000000
 96      -0.000000000000
 97      -0.000000000000
 98       0.000000000000
 99      -0.000000000000
100       0.000000000000
101       0.000000000000
102       0.000000000000
103      -0.000000000000
104       0.000000000000
105      -0.000000000000
106      -0.000000000000
107      -0.000000000000
108       0.000000000000
109      -0.000000000000
110       0.000000000000
111       0.000000000003
112      -0.000000000015
113       0.000000000000
114      -0.000000000001
115       0.000000000002
116       0.000000000002
117       0.000000000000
118      -0.000000000002
119       0.000000000011
120      -0.000000000000
121       0.000000000001
122      -0.000000000001
123      -0.000000000002
124      -0.000000000000
125       0.000000000002
126      -0.000000000007
127       0.000000000000
128      -0.000000000001
129       0.000000000001
130       0.000000000001
131       0.000000000000
132      -0.000000000001
133       0.000000000003
134      -0.000000000000
135       0.000000000000
136      -0.000000000000
137      -0.000000000000
138      -0.000000000000
139       0.000000000000
140      -0.000000000001
141       0.000000000000
142      -0.000000000000
143       0.000000000000
144       0.000000000000
145      -0.000000000000
146      -0.000000000000
147       0.000000000001
148      -0.000000000000
149       0.000000000000
150      -0.000000000000
151      -0.000000000000
152      -0.000000000000
153       0.000000000000
154      -0.000000000000
155       0.000000000000
156      -0.000000000000
157       0.000000000000
158       0.000000000000
159       0.000000000000
 Sym=     1a
 Ene= -7.11538099570758E+02
 Spin= Alpha
 Occup= 1.000000
  1       0.000000000000
  2       0.000000000000
  3       0.000000000000
  4       0.000000000000
  5       0.000000000000
  6       0.000000000000
  7      -0.000000000000
  8      -0.000000000000
  9      -0.000000000000
 10       0.000000000000
 11      -0.000000000000
 12       0.000000000000
 13      -0.000000000000
 14       0.000000000000
 15       0.000000000000
 16      -0.000000000000
 17       0.000000000000
 18      -0.000000000000
 19       0.000000000000
 20      -0.000000000000
 21       0.000000000000
 22      -0.001791823280
 23       0.002261579927
 24       0.181745161917
 25      -0.003007868234
 26       0.003796431544
 27       0.305088959008
 28      -0.004493040193
 29       0.005670966342
 30       0.455730387416
 31      -0.002340113088
 32       0.002953613142
 33       0.237358358222
 34      -0.000074519144
 35       0.000094055594
 36       0.007558498550
 37      -0.000043124744
 38       0.000054430621
 39       0.004374155555
 40       0.000029707625
 41      -0.000037495979
 42      -0.003013253175
 43      -0.000018237928
 44       0.000023019308
 45       0.001849878456
 46       0.000010953822
 47      -0.000013825551
 48      -0.001111049414
 49      -0.000006487160
 50       0.000008187878
 51       0.000657994541
 52       0.000003627513
 53      -0.000004578527
 54      -0.000367939734
 55      -0.000001753861
 56       0.000002213666
 57       0.000177894681
 58       0.000000549094
 59      -0.000000693048
 60      -0.000055694762
 61       0.000000000002
 62      -0.000000000010
 63       0.000000000000
 64      -0.000000000001
 65       0.000000000001
 66      -0.000000000008
 67       0.000000000035
 68      -0.000000000001
 69       0.000000000003
 70      -0.000000000003
 71       0.000000000001
 72      -0.000000000005
 73       0.000000000000
 74      -0.000000000000
 75       0.000000000000
 76      -0.000000000003
 77       0.000000000011
 78      -0.000000000000
 79       0.000000000001
 80      -0.000000000001
 81       0.000000000002
 82      -0.000000000009
 83       0.000000000000
 84      -0.000000000001
 85       0.000000000001
 86      -0.000000000000
 87       0.000000000000
 88      -0.000000000000
 89       0.000000000000
 90      -0.000000000000
 91       0.000000000000
 92      -0.000000000000
 93       0.000000000000
 94      -0.000000000000
 95       0.000000000000
 96       0.000000000000
 97      -0.000000000000
 98       0.000000000000
 99      -0.000000000000
100       0.000000000000
101      -0.000000000000
102       0.000000000000
103      -0.000000000000
104       0.000000000000
105      -0.000000000000
106       0.000000000000
107      -0.000000000000
108       0.000000000000
109      -0.000000000000
110       0.000000000000
111      -0.000000000009
112       0.000000000000
113       0.000000000001
114      -0.000000000004
115       0.000000000001
116      -0.000000000000
117      -0.000000000000
118       0.000000000003
119      -0.000000000000
120      -0.000000000001
121       0.000000000001
122      -0.000000000000
123       0.000000000000
124       0.000000000000
125      -0.000000000002
126       0.000000000000
127       0.000000000000
128      -0.000000000001
129       0.000000000000
130      -0.000000000000
131      -0.000000000000
132       0.000000000001
133      -0.000000000000
134      -0.000000000000
135       0.000000000001
136      -0.000000000000
137      -0.000000000000
138       0.000000000000
139      -0.000000000000
140       0.000000000000
141       0.000000000000
142      -0.000000000000
143       0.000000000000
144       0.000000000000
145      -0.000000000000
146       0.000000000000
147      -0.000000000000
148      -0.000000000000
149       0.000000000000
150      -0.000000000000
151      -0.000000000000
152       0.000000000000
153      -0.000000000000
154       0.000000000000
155       0.000000000000
156      -0.000000000000
157       0.000000000000
158       0.000000000000
159      -0.000000000000
 Sym=     1a
 Ene= -7.11538099567898E+02
 Spin= Alpha
 Occup= 1.000000
  1      -0.000000000000
  2      -0.000000000000
  3      -0.000000000000
  4      -0.000000000000
  5      -0.000000000000
  6      -0.000000000000
  7       0.000000000000
  8       0.000000000000
  9       0.000000000000
 10      -0.000000000000
 11       0.000000000000
 12      -0.000000000000
 13       0.000000000000
 14       0.000000000000
 15      -0.000000000000
 16       0.000000000000
 17      -0.000000000000
 18       0.000000000000
 19      -0.000000000000
 20       0.000000000000
 21      -0.000000000000
 22       0.181180579787
 23      -0.014469291393
 24       0.001966308407
 25       0.304141215630
 26      -0.024289070488
 27       0.003300770037
 28       0.454314684056
 29      -0.036282097978
 30       0.004930565868
 31       0.236621016531
 32      -0.018896829019
 33       0.002567989872
 34       0.007535018495
 35      -0.000601755323
 36       0.000081775707
 37       0.004360567443
 38      -0.000348239977
 39       0.000047324170
 40      -0.003003892646
 41       0.000239894353
 42      -0.000032600511
 43       0.001844131896
 44      -0.000147274514
 45       0.000020013911
 46      -0.001107597992
 47       0.000088454061
 48      -0.000012020490
 49       0.000655950512
 50      -0.000052384969
 51       0.000007118870
 52      -0.000366796747
 53       0.000029292814
 54      -0.000003980755
 55       0.000177342060
 56      -0.000014162743
 57       0.000001924650
 58      -0.000055521749
 59       0.000004434031
 60      -0.000000602564
 61      -0.000000000008
 62      -0.000000000002
 63       0.000000000001
 64       0.000000000001
 65      -0.000000000001
 66       0.000000000030
 67       0.000000000008
 68      -0.000000000003
 69      -0.000000000004
 70       0.000000000002
 71      -0.000000000005
 72      -0.000000000001
 73       0.000000000000
 74       0.000000000001
 75      -0.000000000000
 76       0.000000000010
 77       0.000000000003
 78      -0.000000000001
 79      -0.000000000001
 80       0.000000000001
 81      -0.000000000008
 82      -0.000000000002
 83       0.000000000001
 84       0.000000000001
 85      -0.000000000000
 86       0.000000000000
 87       0.000000000000
 88      -0.000000000000
 89      -0.000000000000
 90       0.000000000000
 91      -0.000000000000
 92      -0.000000000000
 93       0.000000000000
 94       0.000000000000
 95      -0.000000000000
 96      -0.000000000000
 97      -0.000000000000
 98       0.000000000000
 99       0.000000000000
100      -0.000000000000
101       0.000000000000
102       0.000000000000
103      -0.000000000000
104      -0.000000000000
105       0.000000000000
106      -0.000000000000
107      -0.000000000000
108       0.000000000000
109       0.000000000000
110      -0.000000000000
111       0.000000000000
112      -0.000000000008
113       0.000000000000
114      -0.000000000000
115       0.000000000001
116       0.000000000005
117      -0.000000000001
118      -0.000000000000
119       0.000000000003
120      -0.000000000000
121       0.000000000000
122      -0.000000000000
123      -0.000000000002
124       0.000000000000
125       0.000000000000
126      -0.000000000002
127       0.000000000000
128      -0.000000000000
129       0.000000000000
130       0.000000000001
131      -0.000000000000
132      -0.000000000000
133       0.000000000001
134      -0.000000000000
135       0.000000000000
136      -0.000000000000
137      -0.000000000000
138       0.000000000000
139       0.000000000000
140      -0.000000000000
141      -0.000000000000
142      -0.000000000000
143      -0.000000000000
144       0.000000000000
145      -0.000000000000
146      -0.000000000000
147       0.000000000000
148       0.000000000000
149      -0.000000000000
150       0.000000000000
151      -0.000000000000
152       0.000000000000
153       0.000000000000
154      -0.000000000000
155      -0.000000000000
156       0.000000000000
157      -0.000000000000
158       0.000000000000
159      -0.000000000000
 Sym=     1a
 Ene= -7.11538099564510E+02
 Spin= Alpha
 Occup= 1.000000
  1       0.000000000000
  2       0.000000000000
  3       0.000000000000
  4       0.000000000000
  5       0.000000000000
  6       0.000000000000
  7      -0.000000000000
  8      -0.000000000000
  9      -0.000000000000
 10       0.000000000000
 11      -0.000000000000
 12       0.000000000000
 13      -0.000000000000
 14       0.000000000000
 15      -0.000000000000
 16       0.000000000000
 17      -0.000000000000
 18       0.000000000000
 19       0.000000000000
 20      -0.000000000000
 21       0.000000000000
 22      -0.014491933325
 23      -0.181177134640
 24       0.002111635784
 25      -0.024327078672
 26      -0.304135432391
 27       0.003544725793
 28      -0.036338873169
 29      -0.454306045246
 30       0.005294977782
 31      -0.018926399281
 32      -0.236616517198
 33       0.002757786768
 34      -0.000602696969
 35      -0.007534875257
 36       0.000087819645
 37      -0.000348784911
 38      -0.004360484507
 39       0.000050821841
 40       0.000240269745
 41       0.003003835514
 42      -0.000035009974
 43      -0.000147504972
 44      -0.001844096824
 45       0.000021493115
 46       0.000088592476
 47       0.001107576928
 48      -0.000012908909
 49      -0.000052466942
 50      -0.000655938037
 51       0.000007645017
 52       0.000029338652
 53       0.000366789771
 54      -0.000004274968
 55      -0.000014184905
 56      -0.000177338687
 57       0.000002066898
 58       0.000004440970
 59       0.000055520693
 60      -0.000000647099
 61       0.000000000001
 62      -0.000000000001
 63       0.000000000000
 64       0.000000000000
 65      -0.000000000004
 66      -0.000000000002
 67       0.000000000003
 68      -0.000000000002
 69      -0.000000000000
 70       0.000000000014
 71       0.000000000000
 72      -0.000000000000
 73       0.000000000000
 74       0.000000000000
 75      -0.000000000002
 76      -0.000000000001
 77       0.000000000001
 78      -0.000000000001
 79      -0.000000000000
 80       0.000000000004
 81       0.000000000001
 82      -0.000000000001
 83       0.000000000000
 84       0.000000000000
 85      -0.000000000004
 86      -0.000000000000
 87       0.000000000000
 88       0.000000000000
 89       0.000000000000
 90       0.000000000000
 91       0.000000000000
 92      -0.000000000000
 93       0.000000000000
 94       0.000000000000
 95      -0.000000000000
 96       0.000000000000
 97      -0.000000000000
 98       0.000000000000
 99       0.000000000000
100      -0.000000000000
101      -0.000000000000
102       0.000000000000
103      -0.000000000000
104       0.000000000000
105       0.000000000000
106       0.000000000000
107      -0.000000000000
108       0.000000000000
109      -0.000000000000
110      -0.000000000000
111       0.000000000000
112       0.000000000001
113       0.000000000006
114       0.000000000001
115      -0.000000000000
116      -0.000000000001
117      -0.000000000006
118      -0.000000000000
119      -0.000000000001
120      -0.000000000002
121      -0.000000000000
122       0.000000000000
123       0.000000000000
124       0.000000000002
125      -0.000000000000
126       0.000000000000
127       0.000000000001
128       0.000000000000
129      -0.000000000000
130      -0.000000000000
131      -0.000000000001
132       0.000000000000
133      -0.000000000000
134      -0.000000000000
135      -0.000000000000
136       0.000000000000
137       0.000000000000
138       0.000000000001
139       0.000000000000
140       0.000000000000
141       0.000000000000
142       0.000000000000
143      -0.000000000000
144       0.000000000000
145      -0.000000000000
146      -0.000000000000
147      -0.000000000000
148      -0.000000000000
149      -0.000000000000
150       0.000000000000
151      -0.000000000000
152       0.000000000000
153       0.000000000000
154      -0.000000000000
155      -0.000000000000
156       0.000000000000
157      -0.000000000000
158       0.000000000000
159      -0.000000000000
 Sym=     1a
 Ene= -2.20209513840497E+02
 Spin= Alpha
 Occup= 1.000000
  1      -0.018801628868
  2      -0.015530609921
  3      -0.025519703987
  4      -0.045088533284
  5      -0.070849679197
  6      -0.093004113838
  7      -0.019392300692
  8       0.307609049542
  9       0.686432134065
 10      -0.236171982825
 11      -0.976522945191
 12      -0.124457729848
 13      -0.021142751372
 14       0.016132636682
 15      -0.011316631590
 16       0.007729983178
 17      -0.005076450144
 18       0.003166806962
 19      -0.001797955988
 20       0.000825365147
 21      -0.000222606829
 22      -0.000000000001
 23      -0.000000000000
 24       0.000000000000
 25      -0.000000000001
 26      -0.000000000000
 27       0.000000000000
 28      -0.000000000002
 29      -0.000000000000
 30       0.000000000000
 31       0.000000000000
 32       0.000000000000
 33      -0.000000000000
 34       0.000000000005
 35       0.000000000000
 36      -0.000000000001
 37       0.000000000002
 38       0.000000000000
 39      -0.000000000000
 40      -0.000000000000
 41      -0.000000000000
 42       0.000000000000
 43       0.000000000000
 44       0.000000000000
 45      -0.000000000000
 46      -0.000000000000
 47       0.000000000000
 48       0.000000000000
 49       0.000000000000
 50      -0.000000000000
 51      -0.000000000000
 52      -0.000000000000
 53       0.000000000000
 54       0.000000000000
 55       0.000000000000
 56      -0.000000000000
 57      -0.000000000000
 58      -0.000000000000
 59       0.000000000000
 60       0.000000000000
 61       0.000000000269
 62       0.000000000005
 63      -0.000000000025
 64       0.000000000159
 65      -0.000000000024
 66       0.000000000605
 67       0.000000000011
 68      -0.000000000056
 69       0.000000000358
 70      -0.000000000055
 71       0.000000000054
 72       0.000000000001
 73      -0.000000000006
 74       0.000000000032
 75      -0.000000000005
 76      -0.000000000033
 77      -0.000000000000
 78       0.000000000002
 79      -0.000000000020
 80       0.000000000003
 81       0.000000000083
 82       0.000000000001
 83      -0.000000000006
 84       0.000000000050
 85      -0.000000000008
 86       0.000000000007
 87       0.000000000000
 88      -0.000000000001
 89       0.000000000004
 90      -0.000000000001
 91       0.000000000016
 92       0.000000000000
 93      -0.000000000001
 94       0.000000000010
 95      -0.000000000001
 96      -0.000000000002
 97      -0.000000000000
 98       0.000000000000
 99      -0.000000000001
100       0.000000000000
101       0.000000000001
102       0.000000000000
103      -0.000000000000
104       0.000000000001
105      -0.000000000000
106      -0.000000000000
107       0.000000000000
108       0.000000000000
109      -0.000000000000
110       0.000000000000
111       0.000000000207
112      -0.000000000967
113       0.000000000018
114      -0.000000000088
115       0.000000000105
116       0.000000000142
117       0.000000000018
118      -0.000000000077
119       0.000000000361
120      -0.000000000007
121       0.000000000033
122      -0.000000000039
123      -0.000000000053
124      -0.000000000007
125       0.000000000056
126      -0.000000000262
127       0.000000000005
128      -0.000000000024
129       0.000000000029
130       0.000000000039
131       0.000000000005
132      -0.000000000031
133       0.000000000146
134      -0.000000000003
135       0.000000000013
136      -0.000000000016
137      -0.000000000022
138      -0.000000000003
139       0.000000000014
140      -0.000000000066
141       0.000000000001
142      -0.000000000006
143       0.000000000007
144       0.000000000010
145       0.000000000001
146      -0.000000000007
147       0.000000000032
148      -0.000000000001
149       0.000000000003
150      -0.000000000003
151      -0.000000000005
152      -0.000000000001
153       0.000000000002
154      -0.000000000011
155       0.000000000000
156      -0.000000000001
157       0.000000000001
158       0.000000000002
159       0.000000000000
 Sym=     1a
 Ene= -1.80169704178192E+02
 Spin= Alpha
 Occup= 1.000000
  1       0.000000000000
  2       0.000000000000
  3       0.000000000000
  4       0.000000000000
  5       0.000000000000
  6       0.000000000000
  7       0.000000000000
  8      -0.000000000000
  9      -0.000000000001
 10       0.000000000000
 11       0.000000000001
 12       0.000000000000
 13      -0.000000000000
 14      -0.000000000000
 15      -0.000000000000
 16       0.000000000000
 17      -0.000000000000
 18       0.000000000000
 19      -0.000000000000
 20       0.000000000000
 21      -0.000000000000
 22      -0.007645020045
 23      -0.101664812222
 24      -0.003947527481
 25      -0.013780925849
 26      -0.183261159607
 27      -0.007115819602
 28      -0.020848720864
 29      -0.277249932545
 30      -0.010765295325
 31       0.009716651016
 32       0.129213722812
 33       0.005017219927
 34       0.055647196230
 35       0.740006137607
 36       0.028733585397
 37       0.018580029677
 38       0.247080480774
 39       0.009593850290
 40      -0.000555300753
 41      -0.007384486428
 42      -0.000286731097
 43       0.000417367747
 44       0.005550229218
 45       0.000215509002
 46      -0.000237406671
 47      -0.003157075385
 48      -0.000122585598
 49       0.000132436042
 50       0.001761157623
 51       0.000068383720
 52      -0.000073079233
 53      -0.000971820407
 54      -0.000037734666
 55       0.000035186746
 56       0.000467919499
 57       0.000018168775
 58      -0.000011005118
 59      -0.000146347988
 60      -0.000005682524
 61       0.000000000013
 62      -0.000000000010
 63       0.000000000017
 64       0.000000000003
 65      -0.000000000129