[Molden Format]
[Title]
 Molden file created by orca_2mkl for BaseName=/data01/4/Pu_OH_3

[Atoms] AU
Pu   1  94          0.6140835148         0.8812284291        -1.8339338595 
O    2   8         -1.6123162272        -2.0148297834        -2.2414079469 
O    3   8          2.6673559969        -0.1487913666         1.0476773967 
O    4   8         -1.6003259149         3.3930240604        -0.3177102063 
H    5   1         -2.7146218270        -3.4369583033        -2.3589961556 
H    6   1          3.5833459383        -0.6717107132         2.5106863621 
H    7   1         -2.6975727178         4.5733035400         0.4902610996 
[GTO]
  1 0
s   9 1.0 
 61522220.6225290000     17063.6754636881
 27964645.7375129983     -6251.6280422765
 12711202.6079610009      9671.6986576994
  5777819.3672550004       289.2210734849
  2626281.5305699999      4464.1627617163
  1193764.3320770001      2006.5541689788
   542620.1509440000      2788.3025657130
   246645.5231560000      2062.8458110195
   112111.6014350000      2113.6106705618
s   1 1.0 
    50959.8188340000      2417.3024864446
s   1 1.0 
    23163.5540150000      1338.1783156871
s   1 1.0 
    10528.8881890000       740.7931835960
s   1 1.0 
     4785.8582680000       410.0907438407
s   1 1.0 
     2175.3901220000       227.0193920667
s   1 1.0 
      988.8136920000       125.6741468865
s   1 1.0 
      449.4607690000        69.5711104117
s   1 1.0 
      204.3003500000        38.5134057612
s   1 1.0 
       92.8637950000        21.3203786259
s   1 1.0 
       42.2108160000        11.8026058245
s   1 1.0 
       19.1867350000         6.5337257345
s   1 1.0 
        8.7212430000         3.6169614730
s   1 1.0 
        3.9642010000         2.0022893726
s   1 1.0 
        1.8019100000         1.1084341915
s   1 1.0 
        0.8190500000         0.6136106705
s   1 1.0 
        0.3722950000         0.3396843160
s   1 1.0 
        0.1692250000         0.1880435685
s   1 1.0 
        0.0769210000         0.1040983350
s   1 1.0 
        0.0349640000         0.0576269887
s   1 1.0 
        0.0158930000         0.0319017498
p   8 1.0 
   879013.3813660000    139189.6694195126
   366255.5755690000     11873.5310695809
   152606.4898210000     40255.8773916045
    63586.0374250000     19887.9699123185
    26494.1822610000     19138.0697118639
    11039.2426090000     15284.2547358037
     4599.6844200000     14199.0747202623
     1916.5351750000     12759.1191870144
p   1 1.0 
      798.5563230000      6050.9286073116
p   1 1.0 
      332.7318010000      2025.6199998139
p   1 1.0 
      138.6382510000       678.1002843303
p   1 1.0 
       57.7659380000       227.0021001283
p   1 1.0 
       24.0691410000        75.9916416591
p   1 1.0 
       10.0288090000        25.4391026723
p   1 1.0 
        4.1786700000         8.5160397883
p   1 1.0 
        1.7411130000         2.8508461829
p   1 1.0 
        0.7254640000         0.9543549283
p   1 1.0 
        0.3022760000         0.3194807322
p   1 1.0 
        0.1259490000         0.1069506658
p   1 1.0 
        0.0524790000         0.0358032150
d   7 1.0 
    43223.8765000000     60764.0080375267
    17289.5506000000     29755.0800020834
     6915.8202400000     32871.2311092175
     2766.3280960000     30065.6700485816
     1106.5312380000     31905.5201083940
      442.6124950000     28787.6778141197
      177.0449980000     19499.0030796932
d   1 1.0 
       70.8179990000      4928.5761768021
d   1 1.0 
       28.3272000000       991.5770557751
d   1 1.0 
       11.3308800000       199.4947420861
d   1 1.0 
        4.5323520000        40.1362172392
d   1 1.0 
        1.8129410000         8.0749809665
d   1 1.0 
        0.7251760000         1.6245985936
d   1 1.0 
        0.2900710000         0.3268531162
d   1 1.0 
        0.1160280000         0.0657589689
d   1 1.0 
        0.0464110000         0.0132299043
f   6 1.0 
     4758.8680260000     68069.5976130275
     1830.3338560000     59148.9500505355
      703.9745600000     64844.9511990799
      270.7594460000     63667.3327460647
      104.1382490000     46445.9881466115
       40.0531730000     19036.1414891793
f   1 1.0 
       15.4050660000      2680.6684110836
f   1 1.0 
        5.9250260000       312.2864675901
f   1 1.0 
        2.2788560000        36.3800311270
f   1 1.0 
        0.8764830000         4.2381170555
f   1 1.0 
        0.3371090000         0.4937230016
f   1 1.0 
        0.1296570000         0.0575163091

  2 0
s   6 1.0 
    27032.3826310000         1.4645050749
     4052.3871392000         1.8244031008
      922.3272271000         2.8547160967
      261.2407098900         4.3654874290
       85.3546413500         5.8940772662
       31.0350352400         6.2963020147
s   1 1.0 
       12.2608607300         4.6698272139
s   1 1.0 
        4.9987076000         2.3826123703
s   1 1.0 
        1.1703108200         0.8019291632
s   1 1.0 
        0.4647474100        -0.4011648063
s   1 1.0 
        0.1850453600         0.2010799377
p   4 1.0 
       63.2749548000         3.0898340730
       14.6270493800         3.3923831935
        4.4501223500         2.9482801524
        1.5275799600         1.7113350234
p   1 1.0 
        0.5293511800         0.6436057935
p   1 1.0 
        0.1747842100         0.1610897223
d   1 1.0 
        2.3140000000        12.3767310624
d   1 1.0 
        0.6450000000         1.3234257612
f   1 1.0 
        1.4280000000        12.7097950062

  3 0
s   6 1.0 
    27032.3826310000         1.4645050749
     4052.3871392000         1.8244031008
      922.3272271000         2.8547160967
      261.2407098900         4.3654874290
       85.3546413500         5.8940772662
       31.0350352400         6.2963020147
s   1 1.0 
       12.2608607300         4.6698272139
s   1 1.0 
        4.9987076000         2.3826123703
s   1 1.0 
        1.1703108200         0.8019291632
s   1 1.0 
        0.4647474100        -0.4011648063
s   1 1.0 
        0.1850453600         0.2010799377
p   4 1.0 
       63.2749548000         3.0898340730
       14.6270493800         3.3923831935
        4.4501223500         2.9482801524
        1.5275799600         1.7113350234
p   1 1.0 
        0.5293511800         0.6436057935
p   1 1.0 
        0.1747842100         0.1610897223
d   1 1.0 
        2.3140000000        12.3767310624
d   1 1.0 
        0.6450000000         1.3234257612
f   1 1.0 
        1.4280000000        12.7097950062

  4 0
s   6 1.0 
    27032.3826310000         1.4645050749
     4052.3871392000         1.8244031008
      922.3272271000         2.8547160967
      261.2407098900         4.3654874290
       85.3546413500         5.8940772662
       31.0350352400         6.2963020147
s   1 1.0 
       12.2608607300         4.6698272139
s   1 1.0 
        4.9987076000         2.3826123703
s   1 1.0 
        1.1703108200         0.8019291632
s   1 1.0 
        0.4647474100        -0.4011648063
s   1 1.0 
        0.1850453600         0.2010799377
p   4 1.0 
       63.2749548000         3.0898340730
       14.6270493800         3.3923831935
        4.4501223500         2.9482801524
        1.5275799600         1.7113350234
p   1 1.0 
        0.5293511800         0.6436057935
p   1 1.0 
        0.1747842100         0.1610897223
d   1 1.0 
        2.3140000000        12.3767310624
d   1 1.0 
        0.6450000000         1.3234257612
f   1 1.0 
        1.4280000000        12.7097950062

  5 0
s   3 1.0 
       34.0613410000         0.2556300129
        5.1235746000         0.4613599287
        1.1646626000         0.6811215012
s   1 1.0 
        0.3272304100         0.3083545312
s   1 1.0 
        0.1030724100         0.1296483265
p   1 1.0 
        0.8000000000         1.0784563492

  6 0
s   3 1.0 
       34.0613410000         0.2556300129
        5.1235746000         0.4613599287
        1.1646626000         0.6811215012
s   1 1.0 
        0.3272304100         0.3083545312
s   1 1.0 
        0.1030724100         0.1296483265
p   1 1.0 
        0.8000000000         1.0784563492

  7 0
s   3 1.0 
       34.0613410000         0.2556300129
        5.1235746000         0.4613599287
        1.1646626000         0.6811215012
s   1 1.0 
        0.3272304100         0.3083545312
s   1 1.0 
        0.1030724100         0.1296483265
p   1 1.0 
        0.8000000000         1.0784563492

[5D]
[9G]
[MO]
 Sym=     1a
 Ene= -4.48843471941778E+03
 Spin= Alpha
 Occup= 1.000000
  1       0.089707938230
  2       0.067509898747
  3       0.114800034491
  4       0.180028562130
  5       0.264902211460
  6       0.299424130435
  7       0.188404362050
  8       0.030965973122
  9       0.000918282877
 10      -0.000657506129
 11       0.000478172299
 12      -0.000351949740
 13       0.000250463529
 14      -0.000170578685
 15       0.000116012736
 16      -0.000080767509
 17       0.000057895828
 18      -0.000037132071
 19       0.000003613446
 20      -0.000003238862
 21       0.000000817357
 22       0.000000121947
 23       0.000000076603
 24      -0.000000196039
 25      -0.000000025374
 26      -0.000000013413
 27       0.000000041151
 28      -0.000000002175
 29      -0.000000001811
 30       0.000000003377
 31      -0.000000004690
 32      -0.000000002582
 33       0.000000007321
 34       0.000000005548
 35       0.000000002932
 36      -0.000000008616
 37      -0.000000002472
 38      -0.000000001295
 39       0.000000003023
 40       0.000000003682
 41       0.000000001846
 42      -0.000000004596
 43       0.000000006567
 44       0.000000004310
 45      -0.000000012667
 46      -0.000000052952
 47      -0.000000031068
 48       0.000000088329
 49       0.000000212989
 50       0.000000122165
 51      -0.000000345483
 52      -0.000000676297
 53      -0.000000391065
 54       0.000001103015
 55       0.000003446226
 56       0.000001986616
 57      -0.000005594776
 58      -0.000000260352
 59      -0.000000154172
 60       0.000000434117
 61      -0.000000013801
 62       0.000000028271
 63       0.000000017025
 64      -0.000000001822
 65       0.000000036788
 66       0.000000020160
 67      -0.000000033227
 68      -0.000000017684
 69       0.000000004772
 70      -0.000000025783
 71      -0.000000021000
 72       0.000000033676
 73       0.000000020751
 74      -0.000000006349
 75       0.000000013645
 76       0.000000030525
 77      -0.000000044102
 78      -0.000000027066
 79       0.000000010940
 80       0.000000000941
 81      -0.000000048767
 82       0.000000067542
 83       0.000000042070
 84      -0.000000018820
 85      -0.000000016127
 86       0.000000077892
 87      -0.000000107118
 88      -0.000000067886
 89       0.000000031253
 90       0.000000033224
 91      -0.000000102477
 92       0.000000142506
 93       0.000000089658
 94      -0.000000043953
 95      -0.000000047387
 96       0.000000123939
 97      -0.000000178736
 98      -0.000000110563
 99       0.000000058905
100       0.000000061300
101       0.000000895117
102      -0.000001211687
103      -0.000000739397
104       0.000000275264
105       0.000000427458
106      -0.000000107592
107       0.000000149797
108       0.000000087843
109      -0.000000030585
110      -0.000000052941
111      -0.000000001969
112       0.000000009739
113       0.000000000680
114       0.000000002315
115      -0.000000010586
116      -0.000000010568
117       0.000000001657
118       0.000000007155
119      -0.000000031961
120      -0.000000002042
121      -0.000000008285
122       0.000000037718
123       0.000000034699
124      -0.000000003985
125      -0.000000015593
126       0.000000068240
127       0.000000004445
128       0.000000017554
129      -0.000000080839
130      -0.000000073764
131       0.000000008116
132       0.000000029582
133      -0.000000128790
134      -0.000000008716
135      -0.000000032529
136       0.000000152042
137       0.000000138401
138      -0.000000015038
139      -0.000000045900
140       0.000000202083
141       0.000000015313
142       0.000000048374
143      -0.000000236330
144      -0.000000212644
145       0.000000022179
146       0.000000045898
147      -0.000000214705
148      -0.000000020062
149      -0.000000043240
150       0.000000242217
151       0.000000208284
152      -0.000000019417
153       0.000000201336
154      -0.000000815371
155      -0.000000004477
156      -0.000000281065
157       0.000001018730
158       0.000000987071
159      -0.000000134235
160      -0.000000051529
161       0.000000236173
162      -0.000000444574
163       0.000001344445
164       0.000002994926
165       0.000005009298
166       0.000000055412
167       0.000000066468
168      -0.000000008246
169       0.000000246369
170       0.000000335568
171       0.000000085884
172       0.000003060903
173       0.000003909694
174       0.000000289686
175      -0.000000055041
176       0.000000002852
177       0.000000008974
178      -0.000000025121
179       0.000000105449
180       0.000000349977
181      -0.000000040812
182      -0.000000067867
183       0.000000157254
184      -0.000000627439
185       0.000000022767
186       0.000000033268
187       0.000000038070
188       0.000000011200
189      -0.000000035918
190      -0.000000073074
191       0.000000026828
192      -0.000000051001
193       0.000000233666
194      -0.000000439504
195       0.000001325172
196       0.000002952735
197       0.000004887841
198      -0.000000029875
199       0.000000026767
200      -0.000000075021
201      -0.000000275479
202       0.000000114094
203      -0.000000318752
204      -0.000002484780
205       0.000001430117
206      -0.000004001715
207       0.000000063276
208       0.000000082314
209      -0.000000053943
210       0.000000022232
211      -0.000000029438
212      -0.000000361097
213      -0.000000513405
214       0.000000307586
215      -0.000000125786
216       0.000000183538
217      -0.000000010623
218       0.000000066133
219      -0.000000026910
220       0.000000044763
221      -0.000000049845
222      -0.000000013967
223       0.000000022472
224      -0.000000051498
225       0.000000236027
226      -0.000000444305
227       0.000001343770
228       0.000002993887
229       0.000005002115
230       0.000000055244
231      -0.000000046548
232      -0.000000048439
233       0.000000244942
234      -0.000000315326
235      -0.000000145662
236       0.000003044834
237      -0.000003223105
238      -0.000002246835
239      -0.000000020878
240      -0.000000064186
241       0.000000057458
242      -0.000000006175
243      -0.000000083421
244       0.000000143001
245       0.000000363535
246      -0.000000361919
247       0.000000042318
248       0.000000511506
249      -0.000000041549
250       0.000000016049
251      -0.000000015442
252      -0.000000009470
253      -0.000000062287
254      -0.000000060269
255      -0.000000026753
256       0.000000120490
257       0.000002480246
258       0.000000874666
259       0.000000366425
260       0.000000472696
261       0.000000025765
262       0.000000119740
263       0.000002475875
264       0.000000861789
265      -0.000000289304
266       0.000000176654
267      -0.000000494160
268       0.000000120734
269       0.000002480114
270       0.000000874724
271       0.000000365017
272      -0.000000383716
273      -0.000000278796
 Sym=     1a
 Ene= -8.54125123032123E+02
 Spin= Alpha
 Occup= 1.000000
  1       0.038294524414
  2       0.031157260642
  3       0.051669109499
  4       0.088896502380
  5       0.140008260110
  6       0.175205645668
  7       0.061929925244
  8      -0.380737304151
  9      -0.603128721566
 10      -0.160412123068
 11       0.001801332431
 12      -0.001356119580
 13       0.000661599637
 14      -0.000303428700
 15       0.000152247140
 16      -0.000095491841
 17       0.000065557386
 18      -0.000040820526
 19       0.000004180721
 20      -0.000003594998
 21       0.000000901631
 22      -0.000000062822
 23      -0.000000032278
 24       0.000000150620
 25      -0.000000331202
 26      -0.000000192522
 27       0.000000616381
 28      -0.000000265912
 29      -0.000000190771
 30       0.000000522678
 31      -0.000001053386
 32      -0.000000547751
 33       0.000001873255
 34      -0.000000390712
 35      -0.000000169378
 36       0.000000699309
 37       0.000000147585
 38       0.000000072075
 39      -0.000000255299
 40      -0.000000030902
 41      -0.000000007720
 42       0.000000061126
 43       0.000000025920
 44       0.000000008947
 45      -0.000000049952
 46      -0.000000106918
 47      -0.000000058903
 48       0.000000180312
 49       0.000000269192
 50       0.000000150561
 51      -0.000000442239
 52      -0.000000750056
 53      -0.000000430543
 54       0.000001227679
 55       0.000003719817
 56       0.000002154928
 57      -0.000006030213
 58      -0.000000277826
 59      -0.000000164648
 60       0.000000463489
 61       0.000001274862
 62      -0.000002330401
 63      -0.000001291610
 64       0.000000228424
 65      -0.000002387801
 66       0.000000274438
 67      -0.000000393990
 68      -0.000000143808
 69       0.000000059014
 70      -0.000000331761
 71      -0.000000157591
 72       0.000000259854
 73       0.000000140164
 74      -0.000000030732
 75       0.000000240130
 76       0.000000092637
 77      -0.000000131942
 78      -0.000000061770
 79       0.000000023630
 80      -0.000000074003
 81      -0.000000074748
 82       0.000000096200
 83       0.000000045235
 84      -0.000000024856
 85       0.000000002256
 86       0.000000087288
 87      -0.000000122922
 88      -0.000000076666
 89       0.000000032766
 90       0.000000012502
 91      -0.000000115726
 92       0.000000159939
 93       0.000000096290
 94      -0.000000047678
 95      -0.000000033754
 96       0.000000128998
 97      -0.000000184963
 98      -0.000000112177
 99       0.000000061128
100       0.000000048292
101       0.000000967787
102      -0.000001309650
103      -0.000000798362
104       0.000000298856
105       0.000000459693
106      -0.000000115118
107       0.000000160408
108       0.000000094295
109      -0.000000032769
110      -0.000000057914
111      -0.000000043246
112       0.000000064257
113      -0.000000004112
114       0.000000053856
115      -0.000000224181
116      -0.000000072785
117      -0.000000061341
118       0.000000040408
119      -0.000000122354
120      -0.000000002690
121      -0.000000053639
122       0.000000224934
123       0.000000136875
124       0.000000020408
125      -0.000000039895
126       0.000000149531
127       0.000000006678
128       0.000000051891
129      -0.000000222152
130      -0.000000165577
131      -0.000000000796
132       0.000000041274
133      -0.000000163920
134      -0.000000009847
135      -0.000000048357
136       0.000000218115
137       0.000000177662
138      -0.000000008526
139      -0.000000050345
140       0.000000214679
141       0.000000016538
142       0.000000053635
143      -0.000000261149
144      -0.000000225342
145       0.000000018526
146       0.000000045927
147      -0.000000218594
148      -0.000000022931
149      -0.000000043995
150       0.000000249452
151       0.000000209880
152      -0.000000017615
153       0.000000217707
154      -0.000000886511
155      -0.000000005631
156      -0.000000304508
157       0.000001104078
158       0.000001073033
159      -0.000000147594
160      -0.000000050156
161       0.000000242526
162      -0.000000463719
163       0.000001440449
164       0.000003219764
165       0.000005404995
166       0.000000060733
167       0.000000073017
168      -0.000000008522
169       0.000000237098
170       0.000000325323
171       0.000000089444
172       0.000003292691
173       0.000004205723
174       0.000000311541
175      -0.000000056754
176       0.000000002226
177       0.000000008511
178      -0.000000025688
179       0.000000109093
180       0.000000378649
181      -0.000000043823
182      -0.000000072817
183       0.000000169511
184      -0.000000678357
185       0.000000024904
186       0.000000037896
187       0.000000043670
188       0.000000012139
189      -0.000000039112
190      -0.000000082607
191       0.000000030733
192      -0.000000049731
193       0.000000240310
194      -0.000000459169
195       0.000001421707
196       0.000003174408
197       0.000005260719
198      -0.000000033902
199       0.000000029558
200      -0.000000082797
201      -0.000000271752
202       0.000000108890
203      -0.000000304057
204      -0.000002666853
205       0.000001535881
206      -0.000004296428
207       0.000000066439
208       0.000000085040
209      -0.000000056337
210       0.000000022835
211      -0.000000030391
212      -0.000000391908
213      -0.000000557101
214       0.000000333417
215      -0.000000136281
216       0.000000199149
217      -0.000000010601
218       0.000000075457
219      -0.000000031388
220       0.000000049748
221      -0.000000056363
222      -0.000000014976
223       0.000000025106
224      -0.000000050206
225       0.000000242645
226      -0.000000464023
227       0.000001441296
228       0.000003217191
229       0.000005377820
230       0.000000061139
231      -0.000000052219
232      -0.000000053102
233       0.000000232700
234      -0.000000306963
235      -0.000000133959
236       0.000003266251
237      -0.000003454867
238      -0.000002410871
239      -0.000000021162
240      -0.000000067153
241       0.000000059611
242      -0.000000005991
243      -0.000000086332
244       0.000000154837
245       0.000000394556
246      -0.000000392829
247       0.000000045211
248       0.000000554793
249      -0.000000047293
250       0.000000017142
251      -0.000000016443
252      -0.000000010411
253      -0.000000071085
254      -0.000000067242
255      -0.000000030958
256       0.000000127015
257       0.000002637120
258       0.000000953239
259       0.000000384855
260       0.000000496722
261       0.000000026968
262       0.000000127007
263       0.000002629934
264       0.000000936424
265      -0.000000303728
266       0.000000185689
267      -0.000000519281
268       0.000000128132
269       0.000002631458
270       0.000000949092
271       0.000000382938
272      -0.000000402746
273      -0.000000292617
 Sym=     1a
 Ene= -7.11813659951458E+02
 Spin= Alpha
 Occup= 1.000000
  1       0.000000023984
  2       0.000000019762
  3       0.000000033168
  4       0.000000056530
  5       0.000000094279
  6       0.000000098550
  7       0.000000046886
  8      -0.000000406147
  9      -0.000000625193
 10       0.000000681366
 11      -0.000000052659
 12      -0.000000039567
 13      -0.000000348404
 14       0.000000989370
 15      -0.000002874223
 16       0.000010126299
 17      -0.000030008828
 18       0.000053870079
 19      -0.000046269102
 20       0.000012199282
 21      -0.000002058772
 22       0.119301601305
 23       0.115396355000
 24       0.074086549600
 25       0.200267358656
 26       0.193711770263
 27       0.124366511745
 28       0.299153801303
 29       0.289361206043
 30       0.185775038468
 31       0.155826115417
 32       0.150725300992
 33       0.096768630492
 34       0.004959667920
 35       0.004797156346
 36       0.003079083969
 37       0.002877233257
 38       0.002783346118
 39       0.001788401635
 40      -0.001992803540
 41      -0.001928085178
 42      -0.001240402914
 43       0.001241512737
 44       0.001201765294
 45       0.000775979520
 46      -0.000776840391
 47      -0.000753010997
 48      -0.000491337158
 49       0.000515222725
 50       0.000501300775
 51       0.000336051712
 52      -0.000361914053
 53      -0.000354618611
 54      -0.000249843448
 55       0.000260137587
 56       0.000257662011
 57       0.000201208266
 58      -0.000028942915
 59      -0.000028542328
 60      -0.000018180413
 61      -0.000000099311
 62      -0.000000118729
 63      -0.000000358960
 64       0.000000216419
 65      -0.000000262200
 66      -0.000001262481
 67      -0.000000465565
 68       0.000000136425
 69      -0.000000362468
 70       0.000001775258
 71       0.000001119509
 72       0.000000307854
 73      -0.000000736544
 74       0.000000755387
 75      -0.000002250222
 76      -0.000002178249
 77      -0.000000703401
 78       0.000001070660
 79      -0.000001218648
 80       0.000004062944
 81       0.000004160518
 82       0.000001384836
 83      -0.000001924598
 84       0.000002243560
 85      -0.000007670406
 86      -0.000008744574
 87      -0.000002894249
 88       0.000004073090
 89      -0.000004726964
 90       0.000016145386
 91       0.000022581101
 92       0.000007461887
 93      -0.000009942049
 94       0.000011766549
 95      -0.000040987512
 96      -0.000050340411
 97      -0.000016495234
 98       0.000021743923
 99      -0.000025945423
100       0.000090966654
101       0.000089897635
102       0.000032830633
103      -0.000042105297
104       0.000049554084
105      -0.000170226393
106      -0.000011871043
107      -0.000003774302
108       0.000002644361
109      -0.000004282406
110       0.000018407487
111      -0.000000807782
112      -0.000000199730
113      -0.000000433678
114       0.000000305299
115       0.000001302718
116       0.000000755727
117      -0.000000572837
118       0.000000735606
119       0.000000038665
120       0.000000768245
121      -0.000000261891
122      -0.000000600579
123      -0.000001014460
124       0.000000666761
125      -0.000000731264
126       0.000000022198
127      -0.000001471488
128       0.000000337836
129       0.000000007666
130       0.000001536851
131      -0.000000842160
132       0.000001104692
133      -0.000000096514
134       0.000003235201
135      -0.000000642478
136       0.000000761763
137      -0.000003012420
138       0.000001467686
139      -0.000003117470
140       0.000000525877
141      -0.000009576917
142       0.000001826863
143      -0.000002953900
144       0.000008567939
145      -0.000004045416
146       0.000010196816
147      -0.000002075701
148       0.000030389085
149      -0.000005733773
150       0.000009905305
151      -0.000026830855
152       0.000012640700
153      -0.000015645834
154       0.000005761782
155      -0.000050352328
156       0.000010296617
157      -0.000020673408
158       0.000041993129
159      -0.000021278423
160      -0.000002001292
161       0.000009560026
162      -0.000018600007
163       0.000060473677
164       0.000121035731
165       0.000296543830
166       0.000005765085
167       0.000007305991
168       0.000001316470
169      -0.000040754744
170      -0.000052030134
171      -0.000007959823
172       0.000023748527
173       0.000027499258
174       0.000011660210
175      -0.000001208755
176       0.000000837255
177       0.000000601949
178      -0.000000556234
179       0.000001750716
180       0.000012046588
181      -0.000004913400
182      -0.000005070404
183       0.000005659683
184      -0.000019939943
185       0.000000610393
186       0.000001437636
187       0.000002215192
188       0.000000116392
189      -0.000000570472
190      -0.000003216218
191       0.000001248945
192       0.000001209874
193      -0.000005773472
194       0.000011204060
195      -0.000036171019
196      -0.000072826461
197      -0.000176464446
198       0.000003018280
199      -0.000000907259
200       0.000004366380
201      -0.000019478167
202       0.000007080459
203      -0.000027994210
204       0.000021277281
205       0.000003432244
206       0.000028113139
207      -0.000000506221
208      -0.000001710431
209       0.000000679168
210      -0.000000166275
211      -0.000000050331
212       0.000005999174
213       0.000013222535
214      -0.000006096508
215       0.000002776020
216      -0.000002903235
217      -0.000000079697
218      -0.000001603104
219       0.000001393946
220      -0.000000435884
221       0.000001428559
222      -0.000000376033
223      -0.000000253247
224       0.000000492741
225      -0.000002352160
226       0.000004568259
227      -0.000014843354
228      -0.000030167363
229      -0.000073832891
230      -0.000000693446
231       0.000001683312
232       0.000001333887
233       0.000005510241
234      -0.000010415477
235      -0.000007565929
236       0.000003393402
237       0.000017301645
238       0.000015058409
239       0.000000626427
240       0.000000567659
241      -0.000000676333
242       0.000000184510
243       0.000000003515
244      -0.000002832788
245      -0.000003677029
246       0.000004176334
247      -0.000000824463
248      -0.000003373334
249       0.000000522788
250      -0.000000162928
251       0.000000389360
252      -0.000000333418
253       0.000000755038
254      -0.000000088176
255       0.000000794424
256       0.000005346093
257      -0.000046701852
258      -0.000016318844
259      -0.000008060997
260      -0.000010465870
261      -0.000001880538
262      -0.000003401256
263       0.000018420910
264       0.000007253210
265      -0.000002800614
266       0.000001094012
267      -0.000004322479
268      -0.000001418187
269       0.000006019068
270       0.000002890439
271       0.000000671621
272      -0.000001298151
273      -0.000001236956
 Sym=     1a
 Ene= -7.11811071797507E+02
 Spin= Alpha
 Occup= 1.000000
  1       0.000000064881
  2       0.000000053245
  3       0.000000089167
  4       0.000000152033
  5       0.000000250599
  6       0.000000276765
  7       0.000000124770
  8      -0.000000990967
  9      -0.000001637138
 10       0.000001459606
 11       0.000000047105
 12      -0.000000250856
 13      -0.000000436210
 14       0.000001559948
 15      -0.000004989234
 16       0.000018218280
 17      -0.000053407203
 18       0.000096208145
 19      -0.000087456571
 20       0.000024231135
 21      -0.000004124510
 22      -0.086185531408
 23       0.139476944899
 24      -0.078463083687
 25      -0.144676734182
 26       0.234135122683
 27      -0.131713199912
 28      -0.216113605716
 29       0.349744162719
 30      -0.196749573950
 31      -0.112569850020
 32       0.182175002996
 33      -0.102482639792
 34      -0.003581766959
 35       0.005798037290
 36      -0.003262604913
 37      -0.002080860886