[Molden Format]
[Title]
 Molden file created by orca_2mkl for BaseName=/data01/Nikolayandreadi/heavy/simpleIons/CH3COO_-

[Atoms] AU
C    1   6          2.1581957463         1.4300710388         1.5666717821 
C    2   6         -0.1313737608         0.5565961560        -0.0401850262 
O    3   8         -1.1874415416         2.2806745662        -1.2918923742 
O    4   8         -0.6801596788        -1.7533068043         0.0768721694 
H    5   1          3.5833818431         2.2669702723         0.3275991431 
H    6   1          2.9920846461        -0.1324849198         2.6212145539 
H    7   1          1.5517051512         2.9061210042         2.8780982554 
[GTO]
  1 0
s   6 1.0 
    13575.3496820000         0.7684632837
     2035.2333680000         1.0861436461
      463.2256235900         1.7703924000
      131.2001959800         2.7178496271
       42.8530158900         3.6101953426
       15.5841857700         3.6946140086
s   1 1.0 
        6.2067138500         2.8025694579
s   1 1.0 
        2.5764896500         1.4493770955
s   1 1.0 
        0.5769633900         0.4718145012
s   1 1.0 
        0.2297283100        -0.2364944648
s   1 1.0 
        0.0951644400         0.1221141848
p   4 1.0 
       34.6972322400         1.3669717438
        7.9582622800         1.4530900682
        2.3780826900         1.2707683638
        0.8143320800         0.8025478511
p   1 1.0 
        0.2888754700         0.3018758836
p   1 1.0 
        0.1005682400         0.0807265050
d   1 1.0 
        1.0970000000         3.3522135855
d   1 1.0 
        0.3180000000         0.3838994974
f   1 1.0 
        0.7610000000         3.0840084332
s   1 1.0 
        0.0317214800         0.0535704351
p   1 1.0 
        0.0335227467         0.0204462931

  2 0
s   6 1.0 
    13575.3496820000         0.7684632837
     2035.2333680000         1.0861436461
      463.2256235900         1.7703924000
      131.2001959800         2.7178496271
       42.8530158900         3.6101953426
       15.5841857700         3.6946140086
s   1 1.0 
        6.2067138500         2.8025694579
s   1 1.0 
        2.5764896500         1.4493770955
s   1 1.0 
        0.5769633900         0.4718145012
s   1 1.0 
        0.2297283100        -0.2364944648
s   1 1.0 
        0.0951644400         0.1221141848
p   4 1.0 
       34.6972322400         1.3669717438
        7.9582622800         1.4530900682
        2.3780826900         1.2707683638
        0.8143320800         0.8025478511
p   1 1.0 
        0.2888754700         0.3018758836
p   1 1.0 
        0.1005682400         0.0807265050
d   1 1.0 
        1.0970000000         3.3522135855
d   1 1.0 
        0.3180000000         0.3838994974
f   1 1.0 
        0.7610000000         3.0840084332
s   1 1.0 
        0.0317214800         0.0535704351
p   1 1.0 
        0.0335227467         0.0204462931

  3 0
s   6 1.0 
    27032.3826310000         1.4645050749
     4052.3871392000         1.8244031008
      922.3272271000         2.8547160967
      261.2407098900         4.3654874290
       85.3546413500         5.8940772662
       31.0350352400         6.2963020147
s   1 1.0 
       12.2608607300         4.6698272139
s   1 1.0 
        4.9987076000         2.3826123703
s   1 1.0 
        1.1703108200         0.8019291632
s   1 1.0 
        0.4647474100        -0.4011648063
s   1 1.0 
        0.1850453600         0.2010799377
p   4 1.0 
       63.2749548000         3.0898340730
       14.6270493800         3.3923831935
        4.4501223500         2.9482801524
        1.5275799600         1.7113350234
p   1 1.0 
        0.5293511800         0.6436057935
p   1 1.0 
        0.1747842100         0.1610897223
d   1 1.0 
        2.3140000000        12.3767310624
d   1 1.0 
        0.6450000000         1.3234257612
f   1 1.0 
        1.4280000000        12.7097950062
s   1 1.0 
        0.0616817867         0.0882120269
p   1 1.0 
        0.0582614033         0.0408005732

  4 0
s   6 1.0 
    27032.3826310000         1.4645050749
     4052.3871392000         1.8244031008
      922.3272271000         2.8547160967
      261.2407098900         4.3654874290
       85.3546413500         5.8940772662
       31.0350352400         6.2963020147
s   1 1.0 
       12.2608607300         4.6698272139
s   1 1.0 
        4.9987076000         2.3826123703
s   1 1.0 
        1.1703108200         0.8019291632
s   1 1.0 
        0.4647474100        -0.4011648063
s   1 1.0 
        0.1850453600         0.2010799377
p   4 1.0 
       63.2749548000         3.0898340730
       14.6270493800         3.3923831935
        4.4501223500         2.9482801524
        1.5275799600         1.7113350234
p   1 1.0 
        0.5293511800         0.6436057935
p   1 1.0 
        0.1747842100         0.1610897223
d   1 1.0 
        2.3140000000        12.3767310624
d   1 1.0 
        0.6450000000         1.3234257612
f   1 1.0 
        1.4280000000        12.7097950062
s   1 1.0 
        0.0616817867         0.0882120269
p   1 1.0 
        0.0582614033         0.0408005732

  5 0
s   3 1.0 
       34.0613410000         0.2556300129
        5.1235746000         0.4613599287
        1.1646626000         0.6811215012
s   1 1.0 
        0.3272304100         0.3083545312
s   1 1.0 
        0.1030724100         0.1296483265
p   1 1.0 
        0.8000000000         1.0784563492

  6 0
s   3 1.0 
       34.0613410000         0.2556300129
        5.1235746000         0.4613599287
        1.1646626000         0.6811215012
s   1 1.0 
        0.3272304100         0.3083545312
s   1 1.0 
        0.1030724100         0.1296483265
p   1 1.0 
        0.8000000000         1.0784563492

  7 0
s   3 1.0 
       34.0613410000         0.2556300129
        5.1235746000         0.4613599287
        1.1646626000         0.6811215012
s   1 1.0 
        0.3272304100         0.3083545312
s   1 1.0 
        0.1030724100         0.1296483265
p   1 1.0 
        0.8000000000         1.0784563492

[5D]
[7F]
[9G]
[MO]
 Sym=     1a
 Ene= -2.03002809870842E+01
 Spin= Alpha
 Occup= 2.000000
  1      -0.000006513712
  2       0.000056335148
  3      -0.000125688575
  4       0.000237469157
  5      -0.000911081719
  6      -0.000500552807
  7      -0.000060396534
  8      -0.000057394594
  9      -0.000032963258
 10      -0.000590851315
 11       0.000183586605
 12      -0.000527240601
 13       0.000332591368
 14      -0.000566281610
 15       0.000398634718
 16      -0.000010242702
 17       0.000064043451
 18      -0.000005453709
 19       0.000014218116
 20       0.000009335469
 21       0.000140421154
 22      -0.000290039506
 23       0.000454950934
 24       0.000314017453
 25       0.000303259272
 26      -0.000014600214
 27       0.000004146600
 28      -0.000022858362
 29      -0.000011540585
 30      -0.000037477868
 31       0.000031705331
 32       0.000023242899
 33       0.000517416568
 34      -0.000122105483
 35       0.000194465947
 36      -0.000140067870
 37      -0.000018181489
 38       0.000064959093
 39      -0.000310535791
 40       0.000310652347
 41      -0.003552815696
 42      -0.002583910677
 43      -0.000078769151
 44      -0.000391481122
 45       0.000030792902
 46      -0.001380574834
 47      -0.004091328087
 48      -0.000115776391
 49       0.000383872722
 50       0.003790404624
 51      -0.000601354455
 52      -0.000180625836
 53       0.000047775797
 54      -0.000034525188
 55      -0.000255581151
 56       0.000141729697
 57      -0.001174285934
 58      -0.000624298813
 59      -0.000305815336
 60      -0.002172469249
 61       0.000756077931
 62       0.000010423422
 63       0.000040370632
 64       0.000071667152
 65      -0.000031667318
 66      -0.000112825424
 67      -0.000077903350
 68      -0.000014308813
 69      -0.000247284355
 70      -0.000225032158
 71      -0.000639000768
 72      -0.000027855135
 73      -0.002605703174
 74      -0.002453688489
 75      -0.001511008847
 76      -0.000144813361
 77      -0.000529051216
 78      -0.001403086988
 79       0.000040761607
 80      -0.000008211201
 81       0.000034299725
 82      -0.000215208237
 83      -0.000136058771
 84      -0.000138062476
 85      -0.000521249599
 86      -0.000261133274
 87      -0.000351421702
 88      -0.000007458487
 89       0.000056295543
 90      -0.000011274346
 91       0.000010726678
 92       0.000000687589
 93      -0.000005395158
 94      -0.000265865882
 95       0.000040482511
 96      -0.000116385031
 97       0.000022685997
 98       0.000030242974
 99      -0.000025359326
100      -0.000009102385
101      -0.000007720671
102       0.000034242731
103       0.000007781162
104       0.000011305586
105      -0.001198626191
106      -0.000094653902
107       0.000395588754
108      -0.000170419605
109       0.436205746336
110       0.411904118319
111       0.250838981613
112       0.025035858491
113       0.015256994196
114       0.006014227976
115       0.000443633134
116       0.001816591254
117      -0.000082542329
118      -0.000921352530
119      -0.003724071513
120       0.000159573028
121       0.000200847526
122       0.000485379253
123       0.000042763264
124      -0.000096490578
125       0.000045351852
126      -0.000022506304
127      -0.000129426235
128       0.000073510678
129       0.000465781859
130       0.000128205861
131       0.000056200902
132       0.000766526623
133      -0.000376528356
134      -0.000007958836
135       0.000011027464
136       0.000053634456
137      -0.000014285743
138       0.000000222881
139      -0.000041730363
140      -0.000056322615
141       0.001622509721
142       0.000285226717
143       0.001001678371
144      -0.000012120795
145      -0.000029919155
146      -0.000384594860
147       0.000184485410
148       0.000053034027
149       0.000103505945
150      -0.000018869438
151       0.000049284666
152       0.000714809182
153      -0.000566896028
154      -0.000069724041
155       0.000062777378
156      -0.000072652616
157      -0.000027865436
158      -0.000370935428
159       0.000181089555
160       0.000020603163
161       0.000113656499
162       0.000019923556
 Sym=     1a
 Ene= -2.02976510157882E+01
 Spin= Alpha
 Occup= 2.000000
  1      -0.000005232505
  2       0.000047792290
  3      -0.000107703969
  4       0.000250109060
  5      -0.000815298862
  6      -0.001506201575
  7      -0.000064932027
  8      -0.000057549546
  9      -0.000036846939
 10      -0.000570635015
 11       0.000337881258
 12      -0.000543956011
 13       0.000161564139
 14       0.000913011301
 15      -0.000094640049
 16      -0.000037248987
 17       0.000048599548
 18       0.000007391746
 19      -0.000025575228
 20       0.000048019000
 21       0.000235720252
 22      -0.000129066836
 23       0.000318763213
 24       0.000455637626
 25       0.000084695736
 26      -0.000001329613
 27       0.000021971242
 28      -0.000035354628
 29       0.000029875428
 30      -0.000052644920
 31       0.000006514600
 32       0.000062754304
 33      -0.001148123424
 34       0.000222357297
 35      -0.000331356134
 36       0.000257480667
 37      -0.000018117313
 38       0.000063780327
 39      -0.000309186642
 40       0.000286505565
 41      -0.003624271484
 42      -0.001527810408
 43      -0.000175864309
 44       0.000297686005
 45      -0.000211200879
 46      -0.002241974990
 47       0.002769982886
 48      -0.002443290043
 49       0.001406512586
 50      -0.002984204718
 51       0.001834181650
 52      -0.000055805439
 53       0.000170452055
 54      -0.000213995668
 55      -0.000113370143
 56      -0.000149753323
 57      -0.000084102573
 58       0.000557349956
 59      -0.001845063938
 60      -0.000859300739
 61      -0.001753331899
 62       0.000083452365
 63      -0.000086420711
 64      -0.000009957785
 65      -0.000046720477
 66       0.000120391372
 67       0.000029381303
 68      -0.000001288827
 69       0.001581976774
 70       0.000153827447
 71       0.000723442808
 72      -0.000052136955
 73       0.436205555628
 74       0.411901343758
 75       0.250841982292
 76       0.025028377386
 77       0.015229729972
 78       0.005746121250
 79       0.000844119489
 80      -0.001346236853
 81       0.000992729311
 82      -0.001714321841
 83       0.002784044684
 84      -0.002028063592
 85       0.000208571226
 86      -0.000196253325
 87       0.000212069021
 88      -0.000032106515
 89       0.000107910318
 90      -0.000113199149
 91      -0.000055289665
 92      -0.000075133557
 93       0.000051528532
 94      -0.000311596327
 95       0.000664770009
 96       0.000284961521
 97       0.000601524459
 98       0.000042486973
 99      -0.000008080562
100       0.000009549704
101       0.000034455872
102       0.000052824994
103      -0.000043774808
104       0.000008693336
105       0.000996352705
106       0.000324039184
107      -0.000678333650
108       0.000420243922
109       0.002606743309
110       0.002468635357
111       0.001485880497
112       0.000152842671
113      -0.000402406635
114      -0.001348124667
115       0.000046776782
116       0.000055438171
117       0.000023859547
118      -0.000271392164
119      -0.000035697362
120      -0.000206838647
121      -0.000498264572
122      -0.000144696673
123      -0.000361724906
124      -0.000023529285
125       0.000042140609
126       0.000010073304
127      -0.000007848791
128       0.000036668006
129       0.000101054075
130      -0.000167585214
131      -0.000110731135
132       0.000003212143
133      -0.000225282022
134       0.000000530497
135       0.000016075169
136       0.000025372059
137      -0.000011631521
138      -0.000043665478
139      -0.000026705242
140      -0.000005849108
141      -0.001257767958
142      -0.000129391931
143      -0.000417536135
144      -0.000003682251
145      -0.000029254763
146      -0.000185147957
147       0.000074175056
148       0.000005033739
149       0.000082121404
150      -0.000021770954
151       0.000057646730
152       0.000612936177
153       0.000247362144
154      -0.000060318477
155       0.000041894319
156      -0.000060119546
157      -0.000027617719
158      -0.000174699696
159       0.000069806129
160       0.000000280176
161       0.000083026029
162      -0.000017169844
 Sym=     1a
 Ene= -1.11342058866414E+01
 Spin= Alpha
 Occup= 2.000000
  1      -0.001467066902
  2      -0.001174097415
  3      -0.000842646288
  4       0.000212164390
  5       0.002710761063
  6       0.004098841679
  7       0.000127747339
  8       0.000066866361
  9       0.000084777019
 10       0.001149815049
 11       0.000169956489
 12       0.000877916592
 13      -0.000847005716
 14      -0.000586984167
 15      -0.000524058708
 16       0.000009933784
 17       0.000018677861
 18       0.000022801350
 19       0.000036077728
 20       0.000015519527
 21      -0.000095973847
 22       0.000074334230
 23      -0.000246195119
 24      -0.000241058560
 25      -0.000151359737
 26       0.000089820718
 27      -0.000062677147
 28      -0.000058403037
 29      -0.000091144979
 30      -0.000072268435
 31       0.000073610226
 32       0.000116009140
 33      -0.004013951949
 34       0.000910038670
 35       0.000346746067
 36       0.000639244764
 37      -0.467672387816
 38      -0.403936851327
 39      -0.227447225430
 40      -0.020747571181
 41      -0.008621593696
 42      -0.011023044180
 43      -0.000184599314
 44      -0.000064982803
 45      -0.000131010004
 46       0.002394183188
 47       0.000825400812
 48       0.001703816987
 49      -0.000884867700
 50      -0.000266108957
 51      -0.000641391121
 52       0.000353650920
 53      -0.000445913559
 54       0.000342241768
 55       0.000477520192
 56      -0.000029244446
 57       0.000600399016
 58       0.000068045563
 59       0.001061313244
 60       0.001483371359
 61       0.000515149782
 62      -0.000167434450
 63      -0.000043020449
 64      -0.000467984719
 65      -0.000207582567
 66      -0.000483443889
 67       0.000617582045
 68       0.000435563844
 69       0.003500513353
 70       0.000887389892
 71       0.000364954202
 72       0.000615101800
 73       0.000124830938
 74       0.000136297929
 75       0.000148140987
 76      -0.000735763812
 77      -0.002042119541
 78       0.000691215156
 79      -0.000176104921
 80       0.000292216548
 81      -0.000209852764
 82       0.000587502256
 83      -0.000946542958
 84       0.000693280167
 85       0.000135300930
 86       0.000096283403
 87       0.000084243238
 88      -0.000007757574
 89      -0.000008048657
 90       0.000033198139
 91       0.000003044511
 92       0.000040653511
 93      -0.000025110645
 94       0.000153404434
 95      -0.000335771579
 96      -0.000144662577
 97      -0.000305266614
 98       0.000035923754
 99      -0.000030576569
100       0.000001558999
101      -0.000016274861
102       0.000042701970
103       0.000002004369
104      -0.000000362995
105       0.002193326001
106       0.000460234221
107      -0.000583442644
108       0.000506494775
109       0.000125229298
110       0.000136547834
111       0.000148951313
112      -0.000733605091
113      -0.001990100892
114       0.000637398199
115      -0.000096376987
116      -0.000387357296
117       0.000016152112
118       0.000337139570
119       0.001232342747
120      -0.000027115660
121       0.000108741665
122      -0.000043043720
123       0.000096784792
124       0.000020245856
125       0.000021803578
126      -0.000007710655
127       0.000035816826
128      -0.000025296778
129      -0.000234385802
130      -0.000063219756
131      -0.000025338664
132      -0.000383642545
133       0.000192792012
134       0.000008020980
135       0.000013372727
136       0.000028863684
137      -0.000011989239
138      -0.000038533575
139      -0.000032381549
140      -0.000005936912
141       0.002136301153
142       0.000273564148
143       0.000797555692
144       0.000027417260
145       0.000035427865
146       0.000318248956
147      -0.000302060925
148      -0.000062188395
149      -0.000071727650
150      -0.000039182484
151      -0.000043836482
152      -0.000218390744
153      -0.000507835756
154      -0.000035411213
155      -0.000093339045
156      -0.000003965162
157       0.000033746935
158       0.000311763633
159      -0.000306509945
160      -0.000070335215
161      -0.000069201905
162      -0.000029150358
 Sym=     1a
 Ene= -1.10487401135380E+01
 Spin= Alpha
 Occup= 2.000000
  1       0.467519761472
  2       0.403384757820
  3       0.228093361829
  4       0.020404569864
  5       0.005910244693
  6       0.012441803462
  7       0.000347010164
  8       0.000233587995
  9       0.000215802341
 10      -0.001258123251
 11      -0.000388213271
 12      -0.000908180096
 13      -0.000849775335
 14      -0.000196338184
 15      -0.000633100169
 16      -0.000007499619
 17      -0.000030721022
 18      -0.000038017624
 19      -0.000047230311
 20      -0.000034374251
 21       0.000021843733
 22       0.000310667077
 23       0.000295549952
 24       0.000349639359
 25       0.000308283976
 26      -0.000005217146
 27       0.000010962605
 28       0.000128524821
 29      -0.000604091070
 30      -0.000777049399
 31       0.000129872874
 32       0.000042552068
 33      -0.000139769543
 34       0.000002972140
 35      -0.000098113665
 36       0.000028498896
 37      -0.001535288278
 38      -0.001412626707
 39      -0.000642790987
 40       0.000258211355
 41       0.000522050185
 42      -0.002431431503
 43       0.000266560758
 44       0.000085922036
 45       0.000190754589
 46      -0.001893948357
 47      -0.000143119449
 48      -0.001468413521
 49      -0.001899924274
 50       0.000146890857
 51      -0.001546992294
 52       0.000018284428
 53      -0.000069115791
 54      -0.000019676644
 55      -0.000018442033
 56      -0.000043970880
 57      -0.000165568862
 58      -0.000661619816
 59      -0.000758614778
 60      -0.000983425326
 61      -0.000675681906
 62       0.000188637461
 63      -0.000093907966
 64       0.000007560456
 65      -0.000155416410
 66      -0.000085701284
 67       0.000002950208
 68       0.000114151940
 69       0.000520078993
 70      -0.000085519624
 71       0.000373318401
 72      -0.000163965255
 73       0.000002618318
 74       0.000010294331
 75      -0.000014265649
 76       0.000138864681
 77       0.000759706477
 78      -0.001412474745
 79       0.000007151745
 80      -0.000014413370
 81       0.000009080903
 82      -0.000318313205
 83       0.000275591197
 84      -0.000318534040
 85      -0.000357224114
 86       0.000417410502
 87      -0.000382123577
 88       0.000003827155
 89      -0.000002448379
 90      -0.000003255767
 91       0.000002777587
 92      -0.000007354238
 93      -0.000023345418
 94      -0.000058525790
 95       0.000067794720
 96      -0.000026420278
 97       0.000087278712
 98      -0.000005546544
 99       0.000003186936
100      -0.000001148947
101       0.000004962340
102       0.000001374511
103       0.000000289544
104      -0.000002048975
105      -0.001387388597
106      -0.000105496717
107       0.000036541683
108      -0.000088923448
109       0.000001956441
110       0.000015358874
111      -0.000025958505
112       0.000139413283
113       0.000687781800
114       0.000245818584
115       0.000001811671
116      -0.000001286092
117       0.000001751183
118      -0.000183253222
119      -0.000189219789
120      -0.000100239929
121       0.000065793826
122      -0.000037431317
123       0.000062423732
124       0.000002909922
125      -0.000010836614
126       0.000002867307
127       0.000000602153
128      -0.000000807314
129      -0.000004064097
130       0.000030876295
131      -0.000036853042
132      -0.000011511087
133      -0.000031419399
134      -0.000007717372
135      -0.000000568425
136      -0.000008914140
137       0.000005075496
138       0.000007303617
139       0.000010409903
140       0.000000803718
141      -0.000416319591
142       0.000033563914
143      -0.000360926706
144       0.000117142489
145      -0.000034096268
146      -0.000522562035
147      -0.001915416693
148       0.000439120504
149       0.000280617838
150      -0.000338020128
151      -0.000018409367
152      -0.000153617265
153      -0.001773113609
154       0.000228360608
155      -0.000407746174
156       0.000283220855
157      -0.000033718271
158      -0.000517650301
159      -0.001912989323
160      -0.000140307830
161       0.000462496759
162       0.000388369562
 Sym=     1a
 Ene= -1.15911501908157E+00
 Spin= Alpha
 Occup= 2.000000
  1       0.010834763826
  2       0.014928017665
  3       0.009542445224
  4      -0.034343118902
  5       0.041855122290
  6       0.031518102041
  7       0.015553175580
  8       0.005869027583
  9       0.010933788904
 10       0.013893726951
 11       0.004663242442
 12       0.009914604461
 13      -0.006681138250
 14      -0.001603923494
 15      -0.004940918246
 16       0.000161524451
 17      -0.001557211633
 18      -0.000438200907
 19      -0.000775540033
 20      -0.000743636446
 21       0.000057829706
 22      -0.002182251125
 23      -0.001583891923
 24      -0.001888438823
 25      -0.001864877537
 26      -0.000307840038
 27       0.000113739544
 28      -0.000470105211
 29       0.000728375953
 30       0.000512456662
 31       0.000226968619
 32       0.000190591235
 33      -0.012408174686
 34       0.003051634106
 35       0.001158163096
 36       0.002142901713
 37       0.063050580000
 38       0.086516669638
 39       0.057793584294
 40      -0.229708782034
 41       0.126821830546
 42      -0.015059093664
 43       0.047749174699
 44       0.018358670710
 45       0.033544807671
 46       0.017155714139
 47       0.007090833460
 48       0.011944271438
 49      -0.012981412762
 50      -0.004012075845
 51      -0.009345746748
 52       0.008172032936
 53      -0.006796729445
 54       0.009654223206
 55       0.013733818693
 56       0.001423751971
 57       0.003978983663
 58      -0.000630562170
 59       0.005341390962
 60       0.008339634783
 61       0.001593712132
 62      -0.001078764623
 63      -0.000813240030
 64      -0.004762048657
 65      -0.002867265950
 66      -0.005384101677
 67       0.006453907902
 68       0.004837262810
 69       0.012203383055
 70       0.002895654005
 71       0.001828691594
 72       0.001850898457
 73       0.059474549568
 74       0.089733636954
 75       0.058727579439
 76      -0.203782500808
 77       0.268732431572
 78      -0.101203798883
 79      -0.027759697986
 80       0.050674136257
 81      -0.034181284162
 82      -0.024845524912
 83       0.044601099907
 84      -0.030412263963
 85      -0.003071053978
 86       0.007292941424
 87      -0.004183758554
 88       0.000489812338
 89      -0.001780245998
 90       0.003073612767
 91       0.001513698065
 92       0.002509484309
 93       0.001266825310
 94      -0.004478300564
 95       0.007857567485
 96       0.003926182777
 97       0.006408771599
 98       0.001067474814
 99      -0.000219468582
100       0.000285964555
101       0.000878314465
102       0.001439426191
103      -0.001134761405
104       0.000132967656
105      -0.006404340130
106      -0.000677688083
107       0.000808523338
108      -0.000726183199
109       0.060356947397
110       0.091070620941
111       0.059607454365
112      -0.206972737273
113       0.272741850687
114      -0.100736269362
115      -0.013275831935
116      -0.066320665944
117       0.005334312314
118      -0.012104631827
119      -0.058341977668
120       0.004355098664
121      -0.000657758890
122      -0.007948901912
123       0.001382161964
124       0.002324142336
125       0.000064850272
126       0.000561270441
127       0.003694300507
128      -0.001645164173
129       0.005848715452
130       0.000251019349
131       0.001438418421
132       0.009353663112
133      -0.004106329257
134      -0.000274577954
135       0.000278969073
136       0.001376746863
137      -0.000373668742
138       0.000062279514
139      -0.001023445069
140      -0.001519812557
141      -0.005378434620
142      -0.000145585322
143      -0.001976411197
144       0.000363304667
145      -0.005148899212
146      -0.005899337044
147      -0.003714977887
148       0.000894419635
149       0.000280165452
150      -0.000170154910
151      -0.005396184796
152      -0.006781812854
153      -0.001847031991
154       0.000421448353
155      -0.000810623928
156       0.000541891952
157      -0.005153277913
158      -0.005905038130
159      -0.003691261731
160       0.000121295523
161       0.000518561245
162       0.000786847780
 Sym=     1a
 Ene= -1.05963077783169E+00
 Spin= Alpha
 Occup= 2.000000
  1       0.000452498313
  2       0.000630247587
  3       0.000385010940
  4      -0.001401070390
  5       0.001505546275
  6       0.004117897823
  7       0.001711698078
  8      -0.008994045804
  9       0.003512708570
 10       0.001220241962
 11      -0.005256228652
 12       0.002223408956
 13       0.000018151023
 14      -0.002064714342
 15       0.000509707777
 16      -0.000634259114
 17      -0.000493862434
 18       0.000599800307
 19      -0.000830875620
 20       0.001187196233
 21      -0.000489779227
 22      -0.001249253857
 23       0.001176175115
 24      -0.000675548644
 25       0.001536075955
 26       0.000211437774
 27       0.000600256686
 28       0.000068074843
 29       0.000789628496
 30      -0.000741585682
 31      -0.000878578992
 32       0.000666830872
 33       0.001710546551
 34      -0.000468693576
 35       0.000850413480
 36      -0.000572507598
 37       0.000467159800
 38       0.000655680736
 39       0.000403969993
 40      -0.001782138108
 41       0.000317723346
 42      -0.002089486026
 43       0.021571938021
 44      -0.172050546039
 45       0.058327717381
 46       0.007902868923
 47      -0.065340299399
 48       0.021922083459
 49      -0.002715702403
 50       0.015230329266
 51      -0.005806512265
 52      -0.005627730370
 53      -0.005910648949
 54       0.007991849088
 55      -0.006657557132
 56       0.013011597986
 57      -0.001296666040
 58      -0.001358407276
 59       0.001623954217
 60      -0.001651983195
 61       0.002781519213
 62      -0.001701428651
 63       0.000324538011
 64       0.001342100990
 65      -0.001896597372
 66      -0.001312116185
 67       0.000488964535
 68      -0.002346806628
 69      -0.001496941848
 70      -0.000154719768
 71      -0.001499715423
 72       0.000231038505
 73       0.068707820745
 74       0.103790298651
 75       0.068237104044
 76      -0.238025386080
 77       0.321902945829
 78      -0.145006219699
 79      -0.031042988738
 80       0.033919173815
 81      -0.032780860482
 82      -0.030819058500
 83       0.036684156301
 84      -0.033262305613
 85      -0.007720161085
 86       0.005970296766
 87      -0.007561170388
 88       0.000205995049
 89      -0.002150186995
 90       0.002750880431
 91       0.000745580586
 92       0.002417317314
 93       0.000397230869
 94      -0.005713819247
 95       0.009076493667
 96       0.002728953823
 97       0.008374766047
 98       0.000907349803
 99      -0.000180408714
100       0.000786652088
101       0.000896812714
102       0.001932036076
103      -0.001499986323
104      -0.000621087686
105      -0.018977339409
106      -0.002259416618
107       0.003640714623
108      -0.002664558653
109      -0.068196997644
110      -0.103020248105
111      -0.067752114727
112       0.236562563888
113      -0.319120651739
114       0.143818249537
115       0.019947041670
116       0.051832498968
117       0.003436716618
118       0.018891263951
119       0.053910866967
120       0.002097233798
121       0.005593642372
122       0.010499066360
123       0.001930348940
124      -0.002152032559
125       0.000130365220
126       0.000011498274
127      -0.003036450944
128       0.002083227434
129      -0.006669904806
130      -0.000900780204
131      -0.000123222052
132      -0.010138046772
133       0.006177090070
134       0.000061556859
135      -0.000436664548