[Molden Format]
[Title]
 Molden file created by orca_2mkl for BaseName=/data01/Nikolayandreadi/heavy/simpleIons/C2O4_2-

[Atoms] AU
O    1   8         -0.0504537980         2.6931394203        -0.3744492334 
C    2   6          0.4578730833         0.3604047888        -0.2884326793 
O    3   8          2.4666085000        -0.6763121963        -1.0617142825 
C    4   6         -1.6615133574        -1.4705092884         0.9257579357 
O    5   8         -1.1054425452        -3.7856373415         1.1216677338 
O    6   8         -3.7178264089        -0.4513232926         1.5895677040 
[GTO]
  1 0
s   6 1.0 
    27032.3826310000         1.4645050749
     4052.3871392000         1.8244031008
      922.3272271000         2.8547160967
      261.2407098900         4.3654874290
       85.3546413500         5.8940772662
       31.0350352400         6.2963020147
s   1 1.0 
       12.2608607300         4.6698272139
s   1 1.0 
        4.9987076000         2.3826123703
s   1 1.0 
        1.1703108200         0.8019291632
s   1 1.0 
        0.4647474100        -0.4011648063
s   1 1.0 
        0.1850453600         0.2010799377
p   4 1.0 
       63.2749548000         3.0898340730
       14.6270493800         3.3923831935
        4.4501223500         2.9482801524
        1.5275799600         1.7113350234
p   1 1.0 
        0.5293511800         0.6436057935
p   1 1.0 
        0.1747842100         0.1610897223
d   1 1.0 
        2.3140000000        12.3767310624
d   1 1.0 
        0.6450000000         1.3234257612
f   1 1.0 
        1.4280000000        12.7097950062
s   1 1.0 
        0.0616817867         0.0882120269
p   1 1.0 
        0.0582614033         0.0408005732

  2 0
s   6 1.0 
    13575.3496820000         0.7684632837
     2035.2333680000         1.0861436461
      463.2256235900         1.7703924000
      131.2001959800         2.7178496271
       42.8530158900         3.6101953426
       15.5841857700         3.6946140086
s   1 1.0 
        6.2067138500         2.8025694579
s   1 1.0 
        2.5764896500         1.4493770955
s   1 1.0 
        0.5769633900         0.4718145012
s   1 1.0 
        0.2297283100        -0.2364944648
s   1 1.0 
        0.0951644400         0.1221141848
p   4 1.0 
       34.6972322400         1.3669717438
        7.9582622800         1.4530900682
        2.3780826900         1.2707683638
        0.8143320800         0.8025478511
p   1 1.0 
        0.2888754700         0.3018758836
p   1 1.0 
        0.1005682400         0.0807265050
d   1 1.0 
        1.0970000000         3.3522135855
d   1 1.0 
        0.3180000000         0.3838994974
f   1 1.0 
        0.7610000000         3.0840084332
s   1 1.0 
        0.0317214800         0.0535704351
p   1 1.0 
        0.0335227467         0.0204462931

  3 0
s   6 1.0 
    27032.3826310000         1.4645050749
     4052.3871392000         1.8244031008
      922.3272271000         2.8547160967
      261.2407098900         4.3654874290
       85.3546413500         5.8940772662
       31.0350352400         6.2963020147
s   1 1.0 
       12.2608607300         4.6698272139
s   1 1.0 
        4.9987076000         2.3826123703
s   1 1.0 
        1.1703108200         0.8019291632
s   1 1.0 
        0.4647474100        -0.4011648063
s   1 1.0 
        0.1850453600         0.2010799377
p   4 1.0 
       63.2749548000         3.0898340730
       14.6270493800         3.3923831935
        4.4501223500         2.9482801524
        1.5275799600         1.7113350234
p   1 1.0 
        0.5293511800         0.6436057935
p   1 1.0 
        0.1747842100         0.1610897223
d   1 1.0 
        2.3140000000        12.3767310624
d   1 1.0 
        0.6450000000         1.3234257612
f   1 1.0 
        1.4280000000        12.7097950062
s   1 1.0 
        0.0616817867         0.0882120269
p   1 1.0 
        0.0582614033         0.0408005732

  4 0
s   6 1.0 
    13575.3496820000         0.7684632837
     2035.2333680000         1.0861436461
      463.2256235900         1.7703924000
      131.2001959800         2.7178496271
       42.8530158900         3.6101953426
       15.5841857700         3.6946140086
s   1 1.0 
        6.2067138500         2.8025694579
s   1 1.0 
        2.5764896500         1.4493770955
s   1 1.0 
        0.5769633900         0.4718145012
s   1 1.0 
        0.2297283100        -0.2364944648
s   1 1.0 
        0.0951644400         0.1221141848
p   4 1.0 
       34.6972322400         1.3669717438
        7.9582622800         1.4530900682
        2.3780826900         1.2707683638
        0.8143320800         0.8025478511
p   1 1.0 
        0.2888754700         0.3018758836
p   1 1.0 
        0.1005682400         0.0807265050
d   1 1.0 
        1.0970000000         3.3522135855
d   1 1.0 
        0.3180000000         0.3838994974
f   1 1.0 
        0.7610000000         3.0840084332
s   1 1.0 
        0.0317214800         0.0535704351
p   1 1.0 
        0.0335227467         0.0204462931

  5 0
s   6 1.0 
    27032.3826310000         1.4645050749
     4052.3871392000         1.8244031008
      922.3272271000         2.8547160967
      261.2407098900         4.3654874290
       85.3546413500         5.8940772662
       31.0350352400         6.2963020147
s   1 1.0 
       12.2608607300         4.6698272139
s   1 1.0 
        4.9987076000         2.3826123703
s   1 1.0 
        1.1703108200         0.8019291632
s   1 1.0 
        0.4647474100        -0.4011648063
s   1 1.0 
        0.1850453600         0.2010799377
p   4 1.0 
       63.2749548000         3.0898340730
       14.6270493800         3.3923831935
        4.4501223500         2.9482801524
        1.5275799600         1.7113350234
p   1 1.0 
        0.5293511800         0.6436057935
p   1 1.0 
        0.1747842100         0.1610897223
d   1 1.0 
        2.3140000000        12.3767310624
d   1 1.0 
        0.6450000000         1.3234257612
f   1 1.0 
        1.4280000000        12.7097950062
s   1 1.0 
        0.0616817867         0.0882120269
p   1 1.0 
        0.0582614033         0.0408005732

  6 0
s   6 1.0 
    27032.3826310000         1.4645050749
     4052.3871392000         1.8244031008
      922.3272271000         2.8547160967
      261.2407098900         4.3654874290
       85.3546413500         5.8940772662
       31.0350352400         6.2963020147
s   1 1.0 
       12.2608607300         4.6698272139
s   1 1.0 
        4.9987076000         2.3826123703
s   1 1.0 
        1.1703108200         0.8019291632
s   1 1.0 
        0.4647474100        -0.4011648063
s   1 1.0 
        0.1850453600         0.2010799377
p   4 1.0 
       63.2749548000         3.0898340730
       14.6270493800         3.3923831935
        4.4501223500         2.9482801524
        1.5275799600         1.7113350234
p   1 1.0 
        0.5293511800         0.6436057935
p   1 1.0 
        0.1747842100         0.1610897223
d   1 1.0 
        2.3140000000        12.3767310624
d   1 1.0 
        0.6450000000         1.3234257612
f   1 1.0 
        1.4280000000        12.7097950062
s   1 1.0 
        0.0616817867         0.0882120269
p   1 1.0 
        0.0582614033         0.0408005732

[5D]
[7F]
[9G]
[MO]
 Sym=     1a
 Ene= -2.01538293399458E+01
 Spin= Alpha
 Occup= 2.000000
  1       0.239009838600
  2       0.225713127046
  3       0.137400416805
  4       0.013891045857
  5       0.009129581925
  6       0.006643078623
  7       0.000250218747
  8      -0.000939742810
  9       0.000014269088
 10      -0.000579037511
 11       0.001941416420
 12       0.000004070233
 13      -0.000085455585
 14      -0.001000434299
 15       0.000149240924
 16      -0.000051157749
 17      -0.000018249635
 18      -0.000004868681
 19      -0.000046829431
 20      -0.000034842550
 21       0.000185548957
 22      -0.000055420907
 23      -0.000028678112
 24       0.000339093933
 25       0.000258797905
 26       0.000000293532
 27       0.000006005037
 28      -0.000015224841
 29      -0.000011383321
 30       0.000006640861
 31      -0.000035134888
 32       0.000018103752
 33       0.005280847354
 34       0.000167335754
 35      -0.001844625939
 36       0.000161236613
 37      -0.000002276049
 38       0.000010890694
 39      -0.000041198836
 40       0.000083816976
 41      -0.000301172090
 42      -0.000300529145
 43      -0.000186004062
 44       0.000277511594
 45       0.000046127637
 46      -0.001878030525
 47       0.002638225400
 48       0.000509638129
 49       0.005785109395
 50      -0.007830616875
 51      -0.001448770259
 52      -0.000049498466
 53       0.000066080649
 54      -0.000048421335
 55      -0.000207385934
 56       0.000030987830
 57      -0.000220428784
 58       0.000613797751
 59      -0.000396551818
 60      -0.001640861123
 61       0.000317755153
 62      -0.000039930550
 63       0.000036294717
 64      -0.000112302490
 65       0.000133026661
 66      -0.000061765588
 67       0.000057306384
 68       0.000054413101
 69      -0.000034180857
 70      -0.000468323002
 71       0.000665599259
 72       0.000095905796
 73      -0.192986928417
 74      -0.182260392380
 75      -0.110921499657
 76      -0.011324920860
 77      -0.007861604660
 78      -0.006143470299
 79       0.000644351382
 80      -0.000375008761
 81      -0.000242845937
 82      -0.001400690154
 83       0.000884204726
 84       0.000525047989
 85       0.000919829519
 86      -0.000069457274
 87      -0.000433701200
 88       0.000028619922
 89       0.000026287686
 90      -0.000010135918
 91      -0.000010113819
 92       0.000037602791
 93      -0.000082837291
 94      -0.000087549003
 95       0.000134028131
 96       0.000121653842
 97      -0.000306136189
 98      -0.000001406927
 99       0.000003727635
100       0.000005340614
101      -0.000009417752
102      -0.000014367302
103      -0.000006481688
104      -0.000029308446
105      -0.005287148055
106       0.001589636767
107      -0.000565543252
108      -0.000659876495
109      -0.000002759737
110       0.000012179064
111      -0.000049268396
112       0.000083247301
113      -0.000393679503
114      -0.000332589294
115       0.000191863917
116      -0.000277877795
117      -0.000029060801
118       0.001855533034
119      -0.002720515445
120      -0.000253946287
121      -0.005892576721
122       0.007820703425
123       0.001118054607
124      -0.000041823649
125       0.000055817369
126      -0.000060315503
127      -0.000212656131
128       0.000017852577
129      -0.000221205817
130       0.000588704100
131      -0.000416907308
132      -0.001680711661
133       0.000186430862
134       0.000023538299
135      -0.000047086362
136       0.000115732071
137      -0.000138217525
138       0.000050796520
139      -0.000056655606
140      -0.000050617247
141       0.000124328562
142       0.000497163660
143      -0.000642019835
144      -0.000114107592
145       0.246737914408
146       0.233011878530
147       0.141841784092
148       0.014346722025
149       0.009441350200
150       0.006727159849
151      -0.000277518546
152       0.000965896278
153      -0.000062691334
154       0.000635728957
155      -0.002013317965
156       0.000112674370
157       0.000045433168
158       0.000990383032
159      -0.000226301731
160      -0.000054044242
161      -0.000016119136
162      -0.000011078344
163      -0.000047066115
164      -0.000037345958
165       0.000194869197
166      -0.000067433186
167       0.000005243410
168       0.000349046233
169       0.000274064305
170      -0.000002730328
171      -0.000005708029
172       0.000017421622
173       0.000008535482
174      -0.000009372714
175       0.000036643127
176      -0.000016841853
177       0.005281713008
178      -0.000219012254
179       0.001836512075
180      -0.000260754836
181      -0.187161124318
182      -0.176757881428
183      -0.107574127245
184      -0.010978210414
185      -0.007618332271
186      -0.006089806142
187      -0.000637454683
188       0.000358305839
189       0.000197528990
190       0.001375126007
191      -0.000848114418
192      -0.000406240687
193      -0.000955292151
194       0.000049173543
195       0.000361954289
196       0.000028542864
197       0.000021842979
198      -0.000007082621
199      -0.000010540442
200       0.000037394044
201      -0.000088238796
202      -0.000060801317
203       0.000117230849
204       0.000119708300
205      -0.000300712928
206       0.000000461595
207      -0.000002814288
208      -0.000004256162
209       0.000010783163
210       0.000012055420
211       0.000005735904
212       0.000029620095
213      -0.005295470951
214      -0.001630425396
215       0.000543209964
216       0.000561916264
 Sym=     1a
 Ene= -2.01538215941207E+01
 Spin= Alpha
 Occup= 2.000000
  1       0.254706845959
  2       0.240519036399
  3       0.146461816178
  4       0.014675557373
  5       0.009403366212
  6       0.003863895162
  7       0.000252566879
  8      -0.001019602059
  9       0.000024671682
 10      -0.000506526771
 11       0.002292813120
 12      -0.000079457829
 13      -0.000260173943
 14      -0.000475828998
 15       0.000196147954
 16      -0.000047144149
 17      -0.000004984817
 18       0.000000174958
 19      -0.000059730984
 20      -0.000040522061
 21       0.000189366725
 22      -0.000115882138
 23      -0.000017393745
 24       0.000452428696
 25       0.000243467421
 26       0.000005600874
 27       0.000000329481
 28      -0.000015524757
 29      -0.000004434644
 30       0.000014156142
 31      -0.000019514829
 32       0.000033842482
 33       0.001047306794
 34       0.000248007998
 35      -0.000590941343
 36      -0.000025963774
 37      -0.000002732147
 38       0.000006747298
 39      -0.000045225079
 40      -0.000012809781
 41      -0.000537399684
 42      -0.000164059370
 43      -0.000189494533
 44       0.000278595026
 45       0.000049027661
 46      -0.001508129722
 47       0.003568738196
 48       0.000185703429
 49       0.001414572178
 50      -0.002389983966
 51      -0.000373191356
 52      -0.000046444131
 53       0.000053943360
 54      -0.000035905121
 55      -0.000186410027
 56       0.000006364746
 57      -0.000449019950
 58       0.000580790520
 59      -0.000169992917
 60      -0.001677614175
 61      -0.000296553769
 62      -0.000021962020
 63       0.000039118992
 64      -0.000110199087
 65       0.000061999960
 66      -0.000058307511
 67      -0.000023288317
 68       0.000030000901
 69       0.000981880483
 70      -0.000350620562
 71       0.000077474179
 72       0.000157133545
 73      -0.176200217094
 74      -0.166370092020
 75      -0.101351485766
 76      -0.010010526917
 77      -0.006120470417
 78      -0.003069892562
 79       0.000569915241
 80      -0.000337956592
 81      -0.000211029259
 82      -0.001109029396
 83       0.000730525175
 84       0.000398241179
 85       0.000505310631
 86       0.000260084638
 87      -0.000256598216
 88       0.000018419139
 89       0.000014708676
 90      -0.000017065180
 91      -0.000010204216
 92       0.000046400528
 93      -0.000033004003
 94      -0.000036849625
 95       0.000142563576
 96       0.000118200281
 97      -0.000296535217
 98      -0.000000494361
 99      -0.000001737255
100       0.000012673725
101      -0.000002563968
102      -0.000009959796
103       0.000011543675
104      -0.000026556998
105      -0.001092975219
106       0.000444071472
107      -0.000286355912
108      -0.000157328800
109       0.000003288116
110      -0.000009294410
111       0.000055213083
112      -0.000005632258
113       0.000614124015
114       0.000233865728
115      -0.000191621911
116       0.000274692821
117       0.000028092719
118      -0.001529012515
119       0.003527663381
120      -0.000001000522
121       0.001413573576
122      -0.002263820625
123      -0.000112928896
124       0.000047862023
125      -0.000049591418
126       0.000046053341
127       0.000183684177
128       0.000003046497
129       0.000390844494
130      -0.000531214582
131       0.000244402635
132       0.001669653096
133       0.000369063956
134      -0.000005104762
135       0.000047389630
136      -0.000106773099
137       0.000070795722
138      -0.000048074015
139      -0.000027322254
140       0.000022925775
141      -0.000991847082
142      -0.000353826977
143       0.000066104193
144       0.000125959285
145      -0.257565128912
146      -0.243217234277
147      -0.148107329022
148      -0.014829745196
149      -0.009457154974
150      -0.003838764777
151       0.000276362893
152      -0.001023644360
153       0.000073007825
154      -0.000557465073
155       0.002289644135
156      -0.000192212734
157      -0.000255970906
158      -0.000464970572
159       0.000178447284
160       0.000047677180
161       0.000003554209
162       0.000009388020
163       0.000058590141
164       0.000044522018
165      -0.000184134299
166       0.000120189596
167      -0.000029230193
168      -0.000449888013
169      -0.000263821292
170       0.000007228773
171      -0.000000354982
172      -0.000014638813
173      -0.000000651404
174       0.000013002593
175      -0.000022280939
176       0.000034036657
177      -0.000973603395
178       0.000255616035
179      -0.000568545274
180      -0.000007790561
181       0.167399762751
182       0.158060166757
183       0.096290269939
184       0.009509508340
185       0.005833025357
186       0.002919299456
187       0.000551848694
188      -0.000316448495
189      -0.000172537817
190      -0.001076904860
191       0.000690265369
192       0.000325753776
193       0.000489638443
194       0.000268449068
195      -0.000261299760
196      -0.000017892803
197      -0.000009698849
198       0.000015066850
199       0.000010871626
200      -0.000044712533
201       0.000035970916
202       0.000016079005
203      -0.000131995832
204      -0.000117519856
205       0.000283899256
206      -0.000000566384
207      -0.000001986520
208       0.000012836966
209      -0.000005007872
210      -0.000009786629
211       0.000012921277
212      -0.000024455607
213       0.001021555885
214       0.000423500235
215      -0.000273581926
216      -0.000131007747
 Sym=     1a
 Ene= -2.01537940363001E+01
 Spin= Alpha
 Occup= 2.000000
  1      -0.182213965520
  2      -0.172102486183
  3      -0.104695697016
  4      -0.010841271037
  5      -0.007570863597
  6      -0.001653852022
  7      -0.000153929904
  8       0.000822099248
  9      -0.000038137653
 10       0.000152012269
 11      -0.002292401987
 12       0.000220364666
 13      -0.000291249753
 14      -0.000063753026
 15       0.000133468898
 16       0.000060197474
 17       0.000023442623
 18       0.000018601476
 19       0.000064342919
 20       0.000005731052
 21      -0.000287573017
 22       0.000008588880
 23      -0.000105352550
 24      -0.000514985054
 25      -0.000039358571
 26       0.000001484252
 27      -0.000012553869
 28       0.000042116032
 29      -0.000013540782
 30       0.000011947723
 31       0.000019243205
 32      -0.000024000134
 33       0.000268523639
 34      -0.000169727936
 35       0.000101317770
 36       0.000063231102
 37       0.000016054493
 38      -0.000044336926
 39       0.000268845470
 40      -0.000007155247
 41       0.003027607392
 42       0.001106064892
 43      -0.000105726406
 44      -0.000009650173
 45       0.000049570965
 46      -0.004098686085
 47      -0.002633897727
 48       0.002221215335
 49       0.001394568780
 50       0.000646215909
 51      -0.000734783826
 52       0.000144808606
 53       0.000098155400
 54      -0.000047084792
 55       0.000031365626
 56       0.000183341881
 57       0.001280721132
 58       0.000221968819
 59      -0.001094018518
 60       0.000577396738
 61       0.003353063923
 62      -0.000127775586
 63       0.000032023708
 64       0.000057058568
 65       0.000065348112
 66       0.000016085143
 67       0.000019649422
 68      -0.000095095331
 69      -0.005019505423
 70       0.000876823944
 71       0.000819641093
 72      -0.000509002014
 73      -0.261793817922
 74      -0.247246065998
 75      -0.150463200502
 76      -0.015394725541
 77      -0.010420715471
 78      -0.002865677160
 79       0.000977602661
 80      -0.000492329523
 81      -0.000380963733
 82      -0.002606029732
 83       0.000987334500
 84       0.001073059918
 85       0.000058643294
 86      -0.000200078913
 87       0.000013068853
 88       0.000054550966
 89       0.000075526229
 90      -0.000012050429
 91      -0.000044833954
 92       0.000049621399
 93      -0.000186766757
 94      -0.000388674773
 95       0.000168540207
 96       0.000448756283
 97      -0.000372159781
 98      -0.000028662682
 99       0.000017943013
100      -0.000016905860
101       0.000028680551
102      -0.000027765974
103       0.000002960147
104      -0.000033585839
105      -0.000027283649
106       0.000200472342
107      -0.000318276248
108      -0.000044858518
109      -0.000014497356
110       0.000037199849
111      -0.000240871749
112      -0.000044436283
113      -0.002812781273
114      -0.000910731529
115      -0.000102770125
116       0.000002874851
117       0.000041905250
118      -0.004085682452
119      -0.002526165496
120       0.002159172175
121       0.001482411232
122       0.000443724851
123      -0.000685960607
124      -0.000139702169
125      -0.000067906608
126       0.000017743447
127      -0.000007349397
128      -0.000182326835
129      -0.001301074814
130      -0.000124201124
131       0.000965503758
132      -0.000459053727
133      -0.003338952690
134      -0.000128151088
135       0.000050771752
136       0.000039614673
137       0.000043949744
138       0.000019111821
139       0.000038177257
140      -0.000091360772
141       0.004991594371
142       0.000870700227
143       0.000837867796
144      -0.000515812511
145       0.161375691644
146       0.152426205211
147       0.092710353721
148       0.009660390507
149       0.006915538248
150       0.001344624439
151      -0.000149749549
152       0.000732386775
153      -0.000076674141
154       0.000168199228
155      -0.002123787225
156       0.000344089956
157      -0.000268335055
158      -0.000085831788
159       0.000135383318
160      -0.000051511919
161      -0.000017607434
162      -0.000029358819
163      -0.000055648113
164      -0.000007967920
165       0.000247651979
166      -0.000015367388
167       0.000165408067
168       0.000468522851
169       0.000050068266
170      -0.000002412904
171      -0.000012237551
172       0.000035542277
173      -0.000018190693
174       0.000009065784
175       0.000018616875
176      -0.000020218423
177      -0.000375661697
178      -0.000165834980
179       0.000045917857
180       0.000060841978
181       0.249995430532
182       0.236106964471
183       0.143674200152
184       0.014741477034
185       0.010120822259
186       0.002823765692
187       0.000960981582
188      -0.000460389549
189      -0.000309957077
190      -0.002612777783
191       0.000929077930
192       0.000888898539
193       0.000075788165
194      -0.000180363070
195      -0.000010341454
196      -0.000058350009
197      -0.000059578553
198       0.000005173545
199       0.000049777774
200      -0.000047393463
201       0.000221818456
202       0.000313159231
203      -0.000140400448
204      -0.000468835293
205       0.000354389102
206      -0.000024069307
207       0.000022772442
208      -0.000016923801
209       0.000023496259
210      -0.000023188251
211       0.000006895978
212      -0.000032436393
213       0.000140870607
214       0.000226770990
215      -0.000320831591
216      -0.000037733277
 Sym=     1a
 Ene= -2.01537857736874E+01
 Spin= Alpha
 Occup= 2.000000
  1       0.187295148580
  2       0.176836383293
  3       0.107757067192
  4       0.010451854949
  5       0.005163092682
  6       0.001544963311
  7       0.000195379333
  8      -0.000750812205
  9       0.000016688154
 10      -0.000303253252
 11       0.001197559501
 12      -0.000036714480
 13       0.000289333281
 14       0.000078578465
 15      -0.000142721465
 16      -0.000073240392
 17      -0.000035839598
 18      -0.000018044762
 19      -0.000058795195
 20      -0.000024952876
 21       0.000241537126
 22       0.000030092726
 23       0.000051675136
 24       0.000334466958
 25       0.000132768961
 26       0.000002809110
 27       0.000013871640
 28      -0.000049790022
 29       0.000009900387
 30      -0.000020912231
 31      -0.000030036049
 32       0.000023506052
 33      -0.000663522300
 34       0.000019578536
 35       0.000000730828
 36      -0.000008836473
 37      -0.000020138371
 38       0.000093279187
 39      -0.000362429637
 40       0.000684487193
 41      -0.002751094015
 42      -0.002555798517
 43       0.000134157318
 44       0.000071503117
 45      -0.000070670409
 46       0.000974252801
 47       0.000421527207
 48      -0.000502825955
 49      -0.001381599060
 50       0.000301914921
 51       0.000572141122
 52      -0.000188433853
 53      -0.000138970273
 54       0.000003483429
 55      -0.000036149340
 56      -0.000142719284
 57      -0.000321097641
 58      -0.000205658923
 59       0.000231068300
 60      -0.000023430819
 61      -0.000636134105
 62       0.000067726665
 63      -0.000020059002
 64      -0.000015799528
 65      -0.000032226916
 66      -0.000030218341
 67      -0.000007287812
 68       0.000007914230
 69       0.000204258549
 70       0.000173350148
 71       0.000026629514
 72      -0.000079085518
 73       0.231206011476
 74       0.218306531836
 75       0.132995602892
 76       0.013024620248
 77       0.006919737743
 78       0.002966022364
 79      -0.000788303467
 80       0.000451086459
 81       0.000294051392
 82       0.001336096694
 83      -0.000768539143
 84      -0.000493402188
 85      -0.000069595689
 86       0.000321585326
 87      -0.000005182503
 88      -0.000071464311
 89      -0.000074891643
 90       0.000004779192
 91       0.000026581438
 92      -0.000050989234
 93       0.000203369834
 94       0.000256109883
 95      -0.000110193953
 96      -0.000220234078
 97       0.000313791669
 98       0.000039656968
 99      -0.000025551489
100       0.000021665240
101      -0.000025132125
102       0.000026870491
103       0.000013316792
104       0.000034159806
105       0.000585635030
106      -0.000370155374
107       0.000146534205
108       0.000151894321
109      -0.000021150547
110       0.000095981492
111      -0.000379316808
112       0.000683248467
113      -0.002944552280
114      -0.002622588269
115      -0.000147838736
116      -0.000064256472
117       0.000073135494
118      -0.001321013352
119      -0.000510460497
120       0.000639549460
121       0.001541268406
122      -0.000322303493
123      -0.000592041976
124      -0.000204237298
125      -0.000132829519
126      -0.000010245221
127      -0.000023017661
128      -0.000160646677
129      -0.000438261919
130      -0.000158413950
131       0.000209231423
132       0.000038997040
133      -0.000896201858
134      -0.000075129538
135       0.000024212348
136       0.000017224767
137       0.000040867892
138       0.000031039901
139       0.000007197774
140      -0.000014922103
141       0.000535903000
142      -0.000120429806
143       0.000034951451
144       0.000046517479
145       0.192408869271
146       0.181668063154
147       0.110691604685
148       0.010771958509
149       0.005417310547
150       0.001544024794
151      -0.000212575769
152       0.000772749909
153      -0.000051085289
154       0.000317828402
155      -0.001284851307
156       0.000094765660
157      -0.000319845197
158      -0.000098370060
159       0.000150425706
160      -0.000076722259
161      -0.000033858575
162      -0.000026398194
163      -0.000058827941
164      -0.000026584842
165       0.000255283462
166       0.000023235031
167       0.000087112597
168       0.000348879382
169       0.000138596274
170      -0.000009403821
171      -0.000017991900
172       0.000052201745
173      -0.000016279541
174       0.000016000895
175       0.000032060275
176      -0.000020061344
177      -0.000715130338
178      -0.000024698038
179      -0.000011850089
180       0.000012427385
181       0.254426833031
182       0.240236044292
183       0.146343507963
184       0.014381899812
185       0.007825821229
186       0.003254743663
187       0.000891802466
188      -0.000487856185
189      -0.000282660166
190      -0.001582881905
191       0.000846846950
192       0.000508276309
193       0.000099746589
194      -0.000323628128
195       0.000023973049
196      -0.000079119794
197      -0.000074575835
198      -0.000000346455
199       0.000033952429
200      -0.000057318348
201       0.000234414417
202       0.000258639655
203      -0.000105240593
204      -0.000271319962
205       0.000351731075
206      -0.000035855937
207       0.000033157029
208      -0.000025299124
209       0.000027801108
210      -0.000021510465
211      -0.000010638431
212      -0.000041241191
213       0.000621464882
214       0.000408441482
215      -0.000173423318
216      -0.000134256620
 Sym=     1a
 Ene= -1.09808553946012E+01
 Spin= Alpha
 Occup= 2.000000
  1      -0.000084990051
  2      -0.000087672719
  3      -0.000111758757
  4       0.000527025609
  5       0.001234526699
  6      -0.000585951926
  7       0.000055121844
  8      -0.000278840243
  9       0.000014002194
 10      -0.000079501897
 11       0.000843829254
 12      -0.000084606401
 13       0.000092270950
 14       0.000121901512
 15      -0.000063215927
 16      -0.000012311542
 17       0.000009597567
 18      -0.000006455756
 19      -0.000037426483
 20      -0.000004420040
 21       0.000161815503
 22      -0.000014657331
 23       0.000051062385
 24       0.000291599187
 25       0.000070405719
 26      -0.000009132820
 27      -0.000003682542
 28       0.000025897109
 29      -0.000004567279
 30       0.000012620183
 31       0.000007615496
 32      -0.000015260329
 33      -0.001499925299
 34      -0.000133603769
 35       0.000572126593
 36      -0.000018904159