[Molden Format]
[Title]
 Molden file created by orca_2mkl for BaseName=/home/nikolayandreadi_2125/_scratch/CC/UCl6

[Atoms] AU
U    1  92         -0.0006519555         0.0000831479        -0.0001322808 
Cl   2  17          0.0005631384        -0.0000793685         4.6199400912 
Cl   3  17          0.0005574692        -0.0000736993        -4.6202367783 
Cl   4  17          0.0005877048        -4.6199930036         0.0001303911 
Cl   5  17          0.0005839254         4.6201952043         0.0001247219 
Cl   6  17         -4.6208755057        -0.0000642507         0.0000831479 
Cl   7  17          4.6192371131        -0.0000699199         0.0000907069 
[GTO]
  1 0
s   9 1.0 
 58915269.2040619999     15878.5363952950
 26779667.8200279996     -5784.7557541551
 12172576.2818310000      9027.3946318877
  5532989.2190140001       325.6868040056
  2514995.0995519999      4208.1243710139
  1143179.5907050001      1939.1491289669
   519627.0866840000      2669.4311026285
   236194.1303110000      2005.5172738201
   107360.9683230000      2058.9530636601
s   1 1.0 
    48800.4401470000      2340.0648682401
s   1 1.0 
    22182.0182490000      1295.4208592531
s   1 1.0 
    10082.7355680000       717.1233692609
s   1 1.0 
     4583.0616220000       396.9875296292
s   1 1.0 
     2083.2098280000       219.7656713216
s   1 1.0 
      946.9135580000       121.6586080998
s   1 1.0 
      430.4152540000        67.3481752053
s   1 1.0 
      195.6432970000        37.2828258248
s   1 1.0 
       88.9287710000        20.6391501245
s   1 1.0 
       40.4221690000        11.4254891526
s   1 1.0 
       18.3737130000         6.3249600754
s   1 1.0 
        8.3516880000         3.5013924304
s   1 1.0 
        3.7962220000         1.9383124866
s   1 1.0 
        1.7255550000         1.0730172334
s   1 1.0 
        0.7843430000         0.5940043302
s   1 1.0 
        0.3565200000         0.3288311987
s   1 1.0 
        0.1620540000         0.1820350044
s   1 1.0 
        0.0736610000         0.1007716339
s   1 1.0 
        0.0334820000         0.0557851540
s   1 1.0 
        0.0152190000         0.0308815919
p   8 1.0 
   839813.6669700000    124700.6825327761
   349922.3612380000     10799.0830937165
   145800.9838490000     36359.2991195727
    60750.4099370000     18163.2607860982
    25312.6708070000     17573.6487977577
    10546.9461700000     14195.6918408552
     4394.5609040000     13322.9302572221
     1831.0670430000     12107.7084625556
p   1 1.0 
      762.9446010000      5715.5278197986
p   1 1.0 
      317.8935840000      1913.3406184205
p   1 1.0 
      132.4556600000       640.5134283167
p   1 1.0 
       55.1898580000       214.4194529751
p   1 1.0 
       22.9957740000        71.7794502225
p   1 1.0 
        9.5815730000        24.0290224861
p   1 1.0 
        3.9923220000         8.0439996005
p   1 1.0 
        1.6634670000         2.6928231053
p   1 1.0 
        0.6931110000         0.9014540144
p   1 1.0 
        0.2887960000         0.3017720791
p   1 1.0 
        0.1203320000         0.1010221266
p   1 1.0 
        0.0501380000         0.0338180721
d   7 1.0 
    41049.8202270000     53262.0337640016
    16419.9280910000     26338.4031025142
     6567.9712360000     29332.4246479962
     2627.1884950000     27101.6066256769
     1050.8753980000     28990.3214062957
      420.3501590000     26289.6282344813
      168.1400640000     17820.8132210096
d   1 1.0 
       67.2560250000      4502.9764563892
d   1 1.0 
       26.9024100000       905.9509006942
d   1 1.0 
       10.7609640000       182.2676717095
d   1 1.0 
        4.3043860000        36.6703201328
d   1 1.0 
        1.7217540000         7.3776748265
d   1 1.0 
        0.6887020000         1.4843111023
d   1 1.0 
        0.2754810000         0.2986279634
d   1 1.0 
        0.1101920000         0.0600803838
d   1 1.0 
        0.0440770000         0.0120876293
f   6 1.0 
     4391.9602590000     58042.2322349557
     1689.2154840000     50234.6786083959
      649.6982630000     55932.1636963999
      249.8839470000     54589.9728655915
       96.1092110000     39385.8448814677
       36.9650810000     15829.5183325708
f   1 1.0 
       14.2173390000      2237.9031973610
f   1 1.0 
        5.4682070000       260.7061095750
f   1 1.0 
        2.1031570000        30.3711607432
f   1 1.0 
        0.8089060000         3.5381049160
f   1 1.0 
        0.3111180000         0.4121749941
f   1 1.0 
        0.1196610000         0.0480168308

  2 0
s   7 1.0 
    69507.9909450000         4.1142286333
    10426.1568800000         4.2286655222
     2373.2334061000         5.8493829067
      671.5642007100         8.3358677251
      218.4199979000        10.0089622684
       77.5722497100         8.2783277553
       28.8888152800         2.9822029766
s   1 1.0 
      127.1052718500        26.9794296956
s   1 1.0 
       39.3395829600        11.1952141621
s   1 1.0 
        7.6740680000         3.2860890225
s   1 1.0 
        3.8745627600        -1.9682357562
s   1 1.0 
        1.8385832600         1.1253110111
s   1 1.0 
        0.5022905800        -0.4252324193
s   1 1.0 
        0.1796272300         0.1966478587
p   6 1.0 
      666.5042328400        13.1758105786
      157.6424169000        16.0544655669
       50.2625209800        17.4320614645
       18.5360781100        14.3789566857
        7.2940532800         7.6571902731
        2.9433249000         1.9874071930
p   1 1.0 
        1.0404970800         1.4979287975
p   1 1.0 
        0.3845641500        -0.4316692201
p   1 1.0 
        0.1306964300         0.1120133392
d   2 1.0 
        4.6100000000         7.5524217504
        1.0110000000         2.6539585854
d   1 1.0 
        0.3390000000         0.4293579962
f   1 1.0 
        0.7060000000         2.6050175686

  3 0
s   7 1.0 
    69507.9909450000         4.1142286333
    10426.1568800000         4.2286655222
     2373.2334061000         5.8493829067
      671.5642007100         8.3358677251
      218.4199979000        10.0089622684
       77.5722497100         8.2783277553
       28.8888152800         2.9822029766
s   1 1.0 
      127.1052718500        26.9794296956
s   1 1.0 
       39.3395829600        11.1952141621
s   1 1.0 
        7.6740680000         3.2860890225
s   1 1.0 
        3.8745627600        -1.9682357562
s   1 1.0 
        1.8385832600         1.1253110111
s   1 1.0 
        0.5022905800        -0.4252324193
s   1 1.0 
        0.1796272300         0.1966478587
p   6 1.0 
      666.5042328400        13.1758105786
      157.6424169000        16.0544655669
       50.2625209800        17.4320614645
       18.5360781100        14.3789566857
        7.2940532800         7.6571902731
        2.9433249000         1.9874071930
p   1 1.0 
        1.0404970800         1.4979287975
p   1 1.0 
        0.3845641500        -0.4316692201
p   1 1.0 
        0.1306964300         0.1120133392
d   2 1.0 
        4.6100000000         7.5524217504
        1.0110000000         2.6539585854
d   1 1.0 
        0.3390000000         0.4293579962
f   1 1.0 
        0.7060000000         2.6050175686

  4 0
s   7 1.0 
    69507.9909450000         4.1142286333
    10426.1568800000         4.2286655222
     2373.2334061000         5.8493829067
      671.5642007100         8.3358677251
      218.4199979000        10.0089622684
       77.5722497100         8.2783277553
       28.8888152800         2.9822029766
s   1 1.0 
      127.1052718500        26.9794296956
s   1 1.0 
       39.3395829600        11.1952141621
s   1 1.0 
        7.6740680000         3.2860890225
s   1 1.0 
        3.8745627600        -1.9682357562
s   1 1.0 
        1.8385832600         1.1253110111
s   1 1.0 
        0.5022905800        -0.4252324193
s   1 1.0 
        0.1796272300         0.1966478587
p   6 1.0 
      666.5042328400        13.1758105786
      157.6424169000        16.0544655669
       50.2625209800        17.4320614645
       18.5360781100        14.3789566857
        7.2940532800         7.6571902731
        2.9433249000         1.9874071930
p   1 1.0 
        1.0404970800         1.4979287975
p   1 1.0 
        0.3845641500        -0.4316692201
p   1 1.0 
        0.1306964300         0.1120133392
d   2 1.0 
        4.6100000000         7.5524217504
        1.0110000000         2.6539585854
d   1 1.0 
        0.3390000000         0.4293579962
f   1 1.0 
        0.7060000000         2.6050175686

  5 0
s   7 1.0 
    69507.9909450000         4.1142286333
    10426.1568800000         4.2286655222
     2373.2334061000         5.8493829067
      671.5642007100         8.3358677251
      218.4199979000        10.0089622684
       77.5722497100         8.2783277553
       28.8888152800         2.9822029766
s   1 1.0 
      127.1052718500        26.9794296956
s   1 1.0 
       39.3395829600        11.1952141621
s   1 1.0 
        7.6740680000         3.2860890225
s   1 1.0 
        3.8745627600        -1.9682357562
s   1 1.0 
        1.8385832600         1.1253110111
s   1 1.0 
        0.5022905800        -0.4252324193
s   1 1.0 
        0.1796272300         0.1966478587
p   6 1.0 
      666.5042328400        13.1758105786
      157.6424169000        16.0544655669
       50.2625209800        17.4320614645
       18.5360781100        14.3789566857
        7.2940532800         7.6571902731
        2.9433249000         1.9874071930
p   1 1.0 
        1.0404970800         1.4979287975
p   1 1.0 
        0.3845641500        -0.4316692201
p   1 1.0 
        0.1306964300         0.1120133392
d   2 1.0 
        4.6100000000         7.5524217504
        1.0110000000         2.6539585854
d   1 1.0 
        0.3390000000         0.4293579962
f   1 1.0 
        0.7060000000         2.6050175686

  6 0
s   7 1.0 
    69507.9909450000         4.1142286333
    10426.1568800000         4.2286655222
     2373.2334061000         5.8493829067
      671.5642007100         8.3358677251
      218.4199979000        10.0089622684
       77.5722497100         8.2783277553
       28.8888152800         2.9822029766
s   1 1.0 
      127.1052718500        26.9794296956
s   1 1.0 
       39.3395829600        11.1952141621
s   1 1.0 
        7.6740680000         3.2860890225
s   1 1.0 
        3.8745627600        -1.9682357562
s   1 1.0 
        1.8385832600         1.1253110111
s   1 1.0 
        0.5022905800        -0.4252324193
s   1 1.0 
        0.1796272300         0.1966478587
p   6 1.0 
      666.5042328400        13.1758105786
      157.6424169000        16.0544655669
       50.2625209800        17.4320614645
       18.5360781100        14.3789566857
        7.2940532800         7.6571902731
        2.9433249000         1.9874071930
p   1 1.0 
        1.0404970800         1.4979287975
p   1 1.0 
        0.3845641500        -0.4316692201
p   1 1.0 
        0.1306964300         0.1120133392
d   2 1.0 
        4.6100000000         7.5524217504
        1.0110000000         2.6539585854
d   1 1.0 
        0.3390000000         0.4293579962
f   1 1.0 
        0.7060000000         2.6050175686

  7 0
s   7 1.0 
    69507.9909450000         4.1142286333
    10426.1568800000         4.2286655222
     2373.2334061000         5.8493829067
      671.5642007100         8.3358677251
      218.4199979000        10.0089622684
       77.5722497100         8.2783277553
       28.8888152800         2.9822029766
s   1 1.0 
      127.1052718500        26.9794296956
s   1 1.0 
       39.3395829600        11.1952141621
s   1 1.0 
        7.6740680000         3.2860890225
s   1 1.0 
        3.8745627600        -1.9682357562
s   1 1.0 
        1.8385832600         1.1253110111
s   1 1.0 
        0.5022905800        -0.4252324193
s   1 1.0 
        0.1796272300         0.1966478587
p   6 1.0 
      666.5042328400        13.1758105786
      157.6424169000        16.0544655669
       50.2625209800        17.4320614645
       18.5360781100        14.3789566857
        7.2940532800         7.6571902731
        2.9433249000         1.9874071930
p   1 1.0 
        1.0404970800         1.4979287975
p   1 1.0 
        0.3845641500        -0.4316692201
p   1 1.0 
        0.1306964300         0.1120133392
d   2 1.0 
        4.6100000000         7.5524217504
        1.0110000000         2.6539585854
d   1 1.0 
        0.3390000000         0.4293579962
f   1 1.0 
        0.7060000000         2.6050175686

[5D]
[9G]
[MO]
 Sym=     1a
 Ene= -4.26078694093241E+03
 Spin= Alpha
 Occup= 2.000000
  1      -0.084983918092
  2      -0.065169417958
  3      -0.111711604992
  4      -0.177550006024
  5      -0.264431122151
  6      -0.303181510073
  7      -0.192924758164
  8      -0.032221098667
  9      -0.000869173690
 10       0.000612401757
 11      -0.000447514018
 12       0.000332332151
 13      -0.000237044875
 14       0.000160550088
 15      -0.000107828632
 16       0.000073455914
 17      -0.000050853143
 18       0.000035246936
 19      -0.000022564410
 20       0.000008526309
 21      -0.000001955556
 22       0.000000000105
 23      -0.000000000013
 24       0.000000000019
 25      -0.000000000049
 26       0.000000000006
 27      -0.000000000009
 28      -0.000000000027
 29       0.000000000003
 30      -0.000000000004
 31       0.000000000004
 32      -0.000000000000
 33      -0.000000000000
 34      -0.000000000013
 35       0.000000000001
 36      -0.000000000001
 37       0.000000000026
 38      -0.000000000003
 39       0.000000000002
 40      -0.000000000042
 41       0.000000000005
 42      -0.000000000004
 43       0.000000000078
 44      -0.000000000008
 45       0.000000000007
 46      -0.000000000143
 47       0.000000000016
 48      -0.000000000015
 49       0.000000000254
 50      -0.000000000028
 51       0.000000000030
 52      -0.000000000335
 53       0.000000000040
 54      -0.000000000052
 55       0.000000000041
 56      -0.000000000010
 57       0.000000000035
 58      -0.000000000236
 59       0.000000000031
 60      -0.000000000053
 61      -0.000000000000
 62       0.000000000000
 63      -0.000000000000
 64       0.000000000000
 65      -0.000000000000
 66       0.000000000001
 67       0.000000000000
 68      -0.000000000000
 69      -0.000000000002
 70      -0.000000000000
 71      -0.000000000001
 72      -0.000000000000
 73       0.000000000000
 74       0.000000000002
 75       0.000000000000
 76       0.000000000001
 77       0.000000000000
 78      -0.000000000000
 79      -0.000000000003
 80      -0.000000000000
 81      -0.000000000003
 82      -0.000000000000
 83       0.000000000000
 84       0.000000000006
 85       0.000000000000
 86       0.000000000005
 87       0.000000000001
 88      -0.000000000001
 89      -0.000000000012
 90      -0.000000000001
 91      -0.000000000011
 92      -0.000000000001
 93       0.000000000001
 94       0.000000000025
 95       0.000000000001
 96       0.000000000019
 97       0.000000000002
 98      -0.000000000002
 99      -0.000000000045
100      -0.000000000001
101      -0.000000000010
102      -0.000000000002
103       0.000000000002
104       0.000000000024
105       0.000000000002
106       0.000000000002
107      -0.000000000000
108       0.000000000000
109      -0.000000000005
110       0.000000000000
111       0.000000000002
112      -0.000000000008
113       0.000000000001
114       0.000000000000
115       0.000000000000
116      -0.000000000010
117      -0.000000000001
118      -0.000000000007
119       0.000000000024
120      -0.000000000003
121      -0.000000000001
122      -0.000000000000
123       0.000000000031
124       0.000000000004
125       0.000000000015
126      -0.000000000051
127       0.000000000007
128       0.000000000001
129       0.000000000000
130      -0.000000000068
131      -0.000000000008
132      -0.000000000031
133       0.000000000105
134      -0.000000000014
135      -0.000000000003
136       0.000000000000
137       0.000000000138
138       0.000000000017
139       0.000000000064
140      -0.000000000220
141       0.000000000028
142       0.000000000005
143       0.000000000000
144      -0.000000000290
145      -0.000000000035
146      -0.000000000126
147       0.000000000441
148      -0.000000000056
149      -0.000000000009
150      -0.000000000000
151       0.000000000578
152       0.000000000069
153       0.000000000175
154      -0.000000000557
155       0.000000000073
156       0.000000000011
157       0.000000000000
158      -0.000000000730
159      -0.000000000089
160      -0.000000022413
161       0.000000024116
162      -0.000000020141
163       0.000000173097
164       0.000000403169
165       0.000000455027
166       0.000000476432
167       0.000000744390
168      -0.000000000001
169       0.000000000000
170      -0.000000001211
171      -0.000000000015
172       0.000000000002
173      -0.000000057039
174      -0.000000000117
175       0.000000000016
176      -0.000000366422
177       0.000000000034
178      -0.000000000004
179      -0.000000468638
180      -0.000000039194
181      -0.000000000024
182       0.000000000003
183       0.000000000001
184       0.000000000000
185      -0.000000169826
186      -0.000000000085
187       0.000000000011
188      -0.000000000002
189      -0.000000000000
190      -0.000000059278
191      -0.000000000075
192       0.000000000010
193       0.000000000000
194       0.000000000000
195       0.000000000012
196       0.000000000001
197      -0.000000022415
198       0.000000024119
199      -0.000000020143
200       0.000000173112
201       0.000000403200
202       0.000000455052
203       0.000000476419
204       0.000000744498
205      -0.000000000001
206       0.000000000000
207       0.000000001207
208      -0.000000000015
209       0.000000000002
210       0.000000057067
211      -0.000000000116
212       0.000000000015
213       0.000000366449
214       0.000000000034
215      -0.000000000004
216       0.000000468692
217      -0.000000039190
218       0.000000000023
219      -0.000000000003
220       0.000000000000
221       0.000000000000
222      -0.000000169866
223       0.000000000085
224      -0.000000000011
225      -0.000000000001
226      -0.000000000000
227       0.000000059240
228      -0.000000000074
229       0.000000000010
230      -0.000000000000
231      -0.000000000000
232       0.000000000012
233       0.000000000001
234      -0.000000022413
235       0.000000024117
236      -0.000000020141
237       0.000000173100
238       0.000000403175
239       0.000000455032
240       0.000000476433
241       0.000000744416
242      -0.000000000001
243       0.000000001211
244      -0.000000000000
245      -0.000000000016
246       0.000000057042
247      -0.000000000003
248      -0.000000000119
249       0.000000366425
250      -0.000000000025
251       0.000000000034
252       0.000000468651
253       0.000000000007
254       0.000000019597
255      -0.000000000000
256       0.000000000005
257       0.000000033943
258       0.000000000024
259       0.000000084916
260       0.000000000000
261       0.000000000019
262       0.000000147076
263       0.000000000087
264       0.000000000008
265       0.000000000031
266      -0.000000036297
267       0.000000000014
268       0.000000000000
269      -0.000000000071
270       0.000000046859
271      -0.000000022415
272       0.000000024118
273      -0.000000020143
274       0.000000173110
275       0.000000403195
276       0.000000455045
277       0.000000476410
278       0.000000744465
279      -0.000000000001
280      -0.000000001207
281      -0.000000000000
282      -0.000000000015
283      -0.000000057068
284      -0.000000000003
285      -0.000000000119
286      -0.000000366449
287      -0.000000000024
288       0.000000000034
289      -0.000000468679
290       0.000000000007
291       0.000000019594
292      -0.000000000000
293      -0.000000000005
294       0.000000033938
295      -0.000000000024
296       0.000000084935
297       0.000000000000
298      -0.000000000018
299       0.000000147109
300      -0.000000000087
301       0.000000000008
302       0.000000000030
303       0.000000036276
304       0.000000000014
305      -0.000000000000
306      -0.000000000071
307      -0.000000046832
308      -0.000000022420
309       0.000000024124
310      -0.000000020147
311       0.000000173145
312       0.000000403262
313       0.000000455089
314       0.000000476331
315       0.000000744626
316       0.000000001193
317       0.000000000000
318      -0.000000000000
319       0.000000057153
320       0.000000000002
321      -0.000000000002
322       0.000000366532
323       0.000000000014
324      -0.000000000020
325       0.000000468763
326      -0.000000000005
327       0.000000000007
328       0.000000019585
329       0.000000000004
330       0.000000000000
331      -0.000000033923
332      -0.000000000003
333       0.000000084996
334       0.000000000015
335      -0.000000000000
336      -0.000000147217
337      -0.000000000010
338       0.000000000006
339      -0.000000036209
340      -0.000000000004
341      -0.000000000011
342      -0.000000000000
343      -0.000000046745
344      -0.000000000008
345      -0.000000022407
346       0.000000024110
347      -0.000000020136
348       0.000000173060
349       0.000000403102
350       0.000000454996
351       0.000000476567
352       0.000000744306
353      -0.000000001230
354       0.000000000000
355      -0.000000000000
356      -0.000000056924
357       0.000000000002
358      -0.000000000002
359      -0.000000366320
360       0.000000000015
361      -0.000000000020
362      -0.000000468571
363      -0.000000000004
364       0.000000000007
365       0.000000019612
366      -0.000000000004
367       0.000000000000
368      -0.000000033968
369       0.000000000003
370       0.000000084828
371      -0.000000000016
372      -0.000000000000
373      -0.000000146928
374       0.000000000011
375       0.000000000006
376       0.000000036392
377      -0.000000000004
378      -0.000000000012
379       0.000000000000
380       0.000000046982
381      -0.000000000009
 Sym=     1a
 Ene= -8.04750961404366E+02
 Spin= Alpha
 Occup= 2.000000
  1      -0.035876880642
  2      -0.029713688517
  3      -0.049764551868
  4      -0.086682647867
  5      -0.138725839572
  6      -0.177776502432
  7      -0.072231383117
  8       0.369135206821
  9       0.610965021692
 10       0.169960737647
 11      -0.002093604294
 12       0.001803105395
 13      -0.000968737985
 14       0.000504005395
 15      -0.000284269735
 16       0.000183503744
 17      -0.000124388898
 18       0.000084878175
 19      -0.000054191613
 20       0.000020436581
 21      -0.000004679819
 22       0.000000001569
 23      -0.000000000191
 24       0.000000000266
 25       0.000000002356
 26      -0.000000000286
 27       0.000000000396
 28       0.000000004020
 29      -0.000000000489
 30       0.000000000683
 31       0.000000003066
 32      -0.000000000371
 33       0.000000000510
 34       0.000000000528
 35      -0.000000000063
 36       0.000000000087
 37       0.000000000126
 38      -0.000000000016
 39       0.000000000018
 40      -0.000000000072
 41       0.000000000009
 42      -0.000000000003
 43       0.000000000164
 44      -0.000000000018
 45       0.000000000013
 46      -0.000000000386
 47       0.000000000043
 48      -0.000000000043
 49       0.000000000645
 50      -0.000000000073
 51       0.000000000078
 52      -0.000000000810
 53       0.000000000096
 54      -0.000000000124
 55       0.000000000067
 56      -0.000000000021
 57       0.000000000081
 58      -0.000000000559
 59       0.000000000074
 60      -0.000000000126
 61       0.000000000010
 62      -0.000000000001
 63       0.000000000001
 64      -0.000000000024
 65       0.000000000001
 66       0.000000000021
 67      -0.000000000002
 68       0.000000000002
 69      -0.000000000052
 70       0.000000000002
 71      -0.000000000005
 72      -0.000000000000
 73       0.000000000000
 74       0.000000000013
 75       0.000000000000
 76       0.000000000007
 77       0.000000000000
 78      -0.000000000000
 79      -0.000000000017
 80      -0.000000000000
 81      -0.000000000009
 82      -0.000000000001
 83       0.000000000000
 84       0.000000000021
 85       0.000000000000
 86       0.000000000014
 87       0.000000000002
 88      -0.000000000001
 89      -0.000000000029
 90      -0.000000000001
 91      -0.000000000030
 92      -0.000000000003
 93       0.000000000003
 94       0.000000000063
 95       0.000000000002
 96       0.000000000054
 97       0.000000000005
 98      -0.000000000004
 99      -0.000000000114
100      -0.000000000003
101      -0.000000000011
102      -0.000000000006
103       0.000000000005
104       0.000000000059
105       0.000000000004
106      -0.000000000001
107      -0.000000000000
108       0.000000000000
109      -0.000000000012
110       0.000000000000
111      -0.000000000029
112       0.000000000076
113      -0.000000000011
114      -0.000000000004
115       0.000000000000
116       0.000000000102
117       0.000000000013
118      -0.000000000011
119       0.000000000042
120      -0.000000000005
121      -0.000000000001
122      -0.000000000000
123       0.000000000055
124       0.000000000006
125       0.000000000040
126      -0.000000000132
127       0.000000000017
128       0.000000000003
129       0.000000000000
130      -0.000000000174
131      -0.000000000021
132      -0.000000000072
133       0.000000000244
134      -0.000000000031
135      -0.000000000006
136      -0.000000000000
137       0.000000000321
138       0.000000000038
139       0.000000000148
140      -0.000000000511
141       0.000000000066
142       0.000000000011
143       0.000000000000
144      -0.000000000672
145      -0.000000000080
146      -0.000000000295
147       0.000000001038
148      -0.000000000132
149      -0.000000000021
150       0.000000000000
151       0.000000001362
152       0.000000000162
153       0.000000000415
154      -0.000000001321
155       0.000000000172
156       0.000000000027
157       0.000000000000
158      -0.000000001732
159      -0.000000000212
160      -0.000000032164
161       0.000000040747
162      -0.000000050033
163       0.000000397861
164       0.000000946013
165       0.000001080741
166       0.000001156362
167       0.000001817021
168      -0.000000000002
169       0.000000000000
170      -0.000000003797
171      -0.000000000034
172       0.000000000005
173      -0.000000123985
174      -0.000000000276
175       0.000000000037
176      -0.000000856687
177       0.000000000073
178      -0.000000000009
179      -0.000001136516
180      -0.000000099071
181      -0.000000000059
182       0.000000000008
183       0.000000000002
184       0.000000000000
185      -0.000000384387
186      -0.000000000194
187       0.000000000026
188      -0.000000000005
189      -0.000000000000
190      -0.000000153501
191      -0.000000000185
192       0.000000000024
193       0.000000000001
194       0.000000000000
195       0.000000000028
196       0.000000000004
197      -0.000000032168
198       0.000000040752
199      -0.000000050038
200       0.000000397897
201       0.000000946088
202       0.000001080801
203       0.000001156331
204       0.000001817280
205      -0.000000000002
206       0.000000000000
207       0.000000003787
208      -0.000000000034
209       0.000000000004
210       0.000000124051
211      -0.000000000274
212       0.000000000035
213       0.000000856750
214       0.000000000073
215      -0.000000000010
216       0.000001136647
217      -0.000000099062
218       0.000000000058
219      -0.000000000007
220       0.000000000001
221       0.000000000000
222      -0.000000384481
223       0.000000000194
224      -0.000000000025
225      -0.000000000002
226      -0.000000000000
227       0.000000153409
228      -0.000000000184
229       0.000000000024
230      -0.000000000001
231      -0.000000000000
232       0.000000000028
233       0.000000000003
234      -0.000000032165
235       0.000000040748
236      -0.000000050034
237       0.000000397869
238       0.000000946031
239       0.000001080759
240       0.000001156372
241       0.000001817098
242      -0.000000000002
243       0.000000003796
244      -0.000000000000
245      -0.000000000035
246       0.000000123992
247      -0.000000000007
248      -0.000000000282
249       0.000000856692
250      -0.000000000058
251       0.000000000072
252       0.000001136560
253       0.000000000014
254       0.000000049535
255      -0.000000000000
256       0.000000000012
257       0.000000085800
258       0.000000000060
259       0.000000192199
260       0.000000000000
261       0.000000000042
262       0.000000332892
263       0.000000000198
264       0.000000000020
265       0.000000000074
266      -0.000000093992
267       0.000000000034
268       0.000000000000
269      -0.000000000175
270       0.000000121343
271      -0.000000032167
272       0.000000040751
273      -0.000000050038
274       0.000000397894
275       0.000000946079
276       0.000001080790
277       0.000001156316
278       0.000001817214
279      -0.000000000002
280      -0.000000003787
281      -0.000000000000
282      -0.000000000035
283      -0.000000124054
284      -0.000000000007
285      -0.000000000281
286      -0.000000856750
287      -0.000000000057
288       0.000000000073
289      -0.000001136625
290       0.000000000015
291       0.000000049529
292      -0.000000000000
293      -0.000000000012
294       0.000000085789
295      -0.000000000060
296       0.000000192243
297       0.000000000000
298      -0.000000000042
299       0.000000332969
300      -0.000000000198
301       0.000000000019
302       0.000000000074
303       0.000000093942
304       0.000000000033
305      -0.000000000000
306      -0.000000000175
307      -0.000000121279
308      -0.000000032175
309       0.000000040761
310      -0.000000050049
311       0.000000397975
312       0.000000946241
313       0.000001080898
314       0.000001156132
315       0.000001817591
316       0.000000003755
317       0.000000000000
318      -0.000000000000
319       0.000000124257
320       0.000000000004