[Molden Format]
[Title]
 Molden file created by orca_2mkl for BaseName=/data01/Nikolayandreadi/heavy/last/U

[Atoms] AU
U    1  92          0.0000000000         0.0000000000         0.0000000000 
[GTO]
  1 0
s   9 1.0 
 58915269.2040619999     15878.5363952950
 26779667.8200279996     -5784.7557541551
 12172576.2818310000      9027.3946318877
  5532989.2190140001       325.6868040056
  2514995.0995519999      4208.1243710139
  1143179.5907050001      1939.1491289669
   519627.0866840000      2669.4311026285
   236194.1303110000      2005.5172738201
   107360.9683230000      2058.9530636601
s   1 1.0 
    48800.4401470000      2340.0648682401
s   1 1.0 
    22182.0182490000      1295.4208592531
s   1 1.0 
    10082.7355680000       717.1233692609
s   1 1.0 
     4583.0616220000       396.9875296292
s   1 1.0 
     2083.2098280000       219.7656713216
s   1 1.0 
      946.9135580000       121.6586080998
s   1 1.0 
      430.4152540000        67.3481752053
s   1 1.0 
      195.6432970000        37.2828258248
s   1 1.0 
       88.9287710000        20.6391501245
s   1 1.0 
       40.4221690000        11.4254891526
s   1 1.0 
       18.3737130000         6.3249600754
s   1 1.0 
        8.3516880000         3.5013924304
s   1 1.0 
        3.7962220000         1.9383124866
s   1 1.0 
        1.7255550000         1.0730172334
s   1 1.0 
        0.7843430000         0.5940043302
s   1 1.0 
        0.3565200000         0.3288311987
s   1 1.0 
        0.1620540000         0.1820350044
s   1 1.0 
        0.0736610000         0.1007716339
s   1 1.0 
        0.0334820000         0.0557851540
s   1 1.0 
        0.0152190000         0.0308815919
p   8 1.0 
   839813.6669700000    124700.6825327761
   349922.3612380000     10799.0830937165
   145800.9838490000     36359.2991195727
    60750.4099370000     18163.2607860982
    25312.6708070000     17573.6487977577
    10546.9461700000     14195.6918408552
     4394.5609040000     13322.9302572221
     1831.0670430000     12107.7084625556
p   1 1.0 
      762.9446010000      5715.5278197986
p   1 1.0 
      317.8935840000      1913.3406184205
p   1 1.0 
      132.4556600000       640.5134283167
p   1 1.0 
       55.1898580000       214.4194529751
p   1 1.0 
       22.9957740000        71.7794502225
p   1 1.0 
        9.5815730000        24.0290224861
p   1 1.0 
        3.9923220000         8.0439996005
p   1 1.0 
        1.6634670000         2.6928231053
p   1 1.0 
        0.6931110000         0.9014540144
p   1 1.0 
        0.2887960000         0.3017720791
p   1 1.0 
        0.1203320000         0.1010221266
p   1 1.0 
        0.0501380000         0.0338180721
d   7 1.0 
    41049.8202270000     53262.0337640016
    16419.9280910000     26338.4031025142
     6567.9712360000     29332.4246479962
     2627.1884950000     27101.6066256769
     1050.8753980000     28990.3214062957
      420.3501590000     26289.6282344813
      168.1400640000     17820.8132210096
d   1 1.0 
       67.2560250000      4502.9764563892
d   1 1.0 
       26.9024100000       905.9509006942
d   1 1.0 
       10.7609640000       182.2676717095
d   1 1.0 
        4.3043860000        36.6703201328
d   1 1.0 
        1.7217540000         7.3776748265
d   1 1.0 
        0.6887020000         1.4843111023
d   1 1.0 
        0.2754810000         0.2986279634
d   1 1.0 
        0.1101920000         0.0600803838
d   1 1.0 
        0.0440770000         0.0120876293
f   6 1.0 
     4391.9602590000     58042.2322349557
     1689.2154840000     50234.6786083959
      649.6982630000     55932.1636963999
      249.8839470000     54589.9728655915
       96.1092110000     39385.8448814677
       36.9650810000     15829.5183325708
f   1 1.0 
       14.2173390000      2237.9031973610
f   1 1.0 
        5.4682070000       260.7061095750
f   1 1.0 
        2.1031570000        30.3711607432
f   1 1.0 
        0.8089060000         3.5381049160
f   1 1.0 
        0.3111180000         0.4121749941
f   1 1.0 
        0.1196610000         0.0480168308

[5D]
[7F]
[9G]
[MO]
 Sym=     1a
 Ene= -4.26018057336724E+03
 Spin= Alpha
 Occup= 1.000000
  1       0.084984073276
  2       0.065169553392
  3       0.111711822402
  4       0.177550409687
  5       0.264431749439
  6       0.303182228250
  7       0.192923373968
  8       0.032219662337
  9       0.000869027878
 10      -0.000611874505
 11       0.000447035230
 12      -0.000331663536
 13       0.000235794019
 14      -0.000158560959
 15       0.000104858613
 16      -0.000068967735
 17       0.000044477916
 18      -0.000027509155
 19       0.000015544830
 20      -0.000007119200
 21       0.000001917838
 22       0.000000000003
 23       0.000000000001
 24       0.000000000001
 25      -0.000000000001
 26       0.000000000000
 27      -0.000000000001
 28       0.000000000001
 29       0.000000000000
 30       0.000000000000
 31       0.000000000000
 32       0.000000000000
 33       0.000000000000
 34      -0.000000000000
 35      -0.000000000000
 36      -0.000000000000
 37       0.000000000000
 38       0.000000000000
 39       0.000000000000
 40      -0.000000000000
 41      -0.000000000000
 42      -0.000000000000
 43       0.000000000000
 44      -0.000000000000
 45       0.000000000000
 46      -0.000000000000
 47       0.000000000000
 48      -0.000000000001
 49       0.000000000000
 50      -0.000000000000
 51       0.000000000001
 52      -0.000000000000
 53      -0.000000000000
 54      -0.000000000001
 55       0.000000000000
 56       0.000000000000
 57       0.000000000000
 58      -0.000000000000
 59       0.000000000000
 60      -0.000000000000
 61       0.000000001159
 62      -0.000000004354
 63      -0.000000000237
 64       0.000000001840
 65       0.000000000584
 66      -0.000000000867
 67       0.000000003267
 68       0.000000000186
 69      -0.000000001383
 70      -0.000000000442
 71       0.000000000599
 72      -0.000000002253
 73      -0.000000000124
 74       0.000000000952
 75       0.000000000303
 76      -0.000000000336
 77       0.000000001266
 78       0.000000000071
 79      -0.000000000536
 80      -0.000000000171
 81       0.000000000176
 82      -0.000000000663
 83      -0.000000000038
 84       0.000000000280
 85       0.000000000090
 86      -0.000000000108
 87       0.000000000405
 88       0.000000000022
 89      -0.000000000171
 90      -0.000000000055
 91       0.000000000060
 92      -0.000000000227
 93      -0.000000000013
 94       0.000000000096
 95       0.000000000031
 96      -0.000000000031
 97       0.000000000118
 98       0.000000000007
 99      -0.000000000050
100      -0.000000000016
101       0.000000000015
102      -0.000000000057
103      -0.000000000003
104       0.000000000024
105       0.000000000008
106      -0.000000000005
107       0.000000000019
108       0.000000000001
109      -0.000000000008
110      -0.000000000003
111      -0.000000000000
112      -0.000000000000
113       0.000000000000
114      -0.000000000000
115      -0.000000000000
116      -0.000000000000
117       0.000000000001
118      -0.000000000000
119      -0.000000000000
120       0.000000000000
121       0.000000000000
122       0.000000000000
123       0.000000000000
124       0.000000000001
125       0.000000000002
126       0.000000000001
127      -0.000000000001
128      -0.000000000001
129       0.000000000001
130      -0.000000000001
131       0.000000000003
132      -0.000000000001
133      -0.000000000001
134       0.000000000001
135       0.000000000001
136      -0.000000000000
137       0.000000000000
138       0.000000000014
139       0.000000000001
140       0.000000000000
141      -0.000000000000
142      -0.000000000000
143       0.000000000000
144      -0.000000000000
145       0.000000000006
146      -0.000000000000
147      -0.000000000000
148       0.000000000000
149       0.000000000000
150      -0.000000000000
151       0.000000000000
152      -0.000000000005
153       0.000000000000
154       0.000000000000
155      -0.000000000000
156      -0.000000000000
157       0.000000000000
158      -0.000000000000
159       0.000000000001
 Sym=     1a
 Ene= -8.04103924201156E+02
 Spin= Alpha
 Occup= 1.000000
  1       0.035877696390
  2       0.029714378989
  3       0.049765785582
  4       0.086684610841
  5       0.138729835473
  6       0.177780157631
  7       0.072231474350
  8      -0.369165050839
  9      -0.610979965794
 10      -0.169908402668
 11       0.002082680194
 12      -0.001801569198
 13       0.000962984706
 14      -0.000495971934
 15       0.000275890890
 16      -0.000172395891
 17       0.000108896905
 18      -0.000066334655
 19       0.000037307337
 20      -0.000017046151
 21       0.000004587411
 22      -0.000000000031
 23      -0.000000000048
 24      -0.000000000016
 25      -0.000000000055
 26      -0.000000000079
 27      -0.000000000025
 28      -0.000000000085
 29      -0.000000000120
 30      -0.000000000037
 31      -0.000000000089
 32      -0.000000000130
 33      -0.000000000039
 34      -0.000000000034
 35      -0.000000000046
 36      -0.000000000016
 37       0.000000000011
 38       0.000000000014
 39       0.000000000006
 40      -0.000000000008
 41      -0.000000000010
 42      -0.000000000004
 43       0.000000000005
 44       0.000000000006
 45       0.000000000003
 46      -0.000000000003
 47      -0.000000000003
 48      -0.000000000003
 49       0.000000000002
 50       0.000000000002
 51       0.000000000003
 52      -0.000000000001
 53      -0.000000000001
 54      -0.000000000002
 55       0.000000000000
 56       0.000000000000
 57       0.000000000001
 58      -0.000000000000
 59       0.000000000000
 60      -0.000000000000
 61      -0.000000081426
 62       0.000000306434
 63       0.000000016841
 64      -0.000000129505
 65      -0.000000041237
 66      -0.000000010565
 67       0.000000039932
 68       0.000000002482
 69      -0.000000016965
 70      -0.000000005453
 71       0.000000007705
 72      -0.000000028897
 73      -0.000000001653
 74       0.000000012231
 75       0.000000003885
 76      -0.000000002388
 77       0.000000008970
 78       0.000000000558
 79      -0.000000003810
 80      -0.000000001217
 81       0.000000000583
 82      -0.000000002192
 83      -0.000000000160
 84       0.000000000937
 85       0.000000000300
 86      -0.000000000711
 87       0.000000002650
 88       0.000000000146
 89      -0.000000001119
 90      -0.000000000350
 91       0.000000000400
 92      -0.000000001509
 93      -0.000000000096
 94       0.000000000641
 95       0.000000000205
 96      -0.000000000195
 97       0.000000000735
 98       0.000000000045
 99      -0.000000000312
100      -0.000000000099
101       0.000000000096
102      -0.000000000361
103      -0.000000000022
104       0.000000000153
105       0.000000000049
106      -0.000000000032
107       0.000000000120
108       0.000000000007
109      -0.000000000051
110      -0.000000000016
111       0.000000000006
112       0.000000000038
113      -0.000000000038
114       0.000000000039
115       0.000000000054
116       0.000000000022
117      -0.000000000079
118       0.000000000006
119      -0.000000000015
120       0.000000000015
121      -0.000000000026
122      -0.000000000029
123      -0.000000000014
124       0.000000000044
125      -0.000000000061
126      -0.000000000019
127       0.000000000024
128       0.000000000037
129      -0.000000000000
130       0.000000000026
131      -0.000000000015
132       0.000000000041
133       0.000000000014
134      -0.000000000017
135      -0.000000000023
136       0.000000000002
137      -0.000000000016
138       0.000000000047
139      -0.000000000019
140      -0.000000000007
141       0.000000000009
142       0.000000000011
143      -0.000000000001
144       0.000000000008
145       0.000000000002
146       0.000000000009
147       0.000000000003
148      -0.000000000004
149      -0.000000000005
150       0.000000000000
151      -0.000000000003
152      -0.000000000009
153      -0.000000000003
154      -0.000000000001
155       0.000000000001
156       0.000000000002
157      -0.000000000000
158       0.000000000001
159       0.000000000003
 Sym=     1a
 Ene= -6.74761497086937E+02
 Spin= Alpha
 Occup= 1.000000
  1      -0.000000000005
  2      -0.000000000004
  3      -0.000000000006
  4      -0.000000000012
  5      -0.000000000015
  6      -0.000000000028
  7      -0.000000000000
  8       0.000000000041
  9       0.000000000117
 10      -0.000000000038
 11       0.000000000002
 12      -0.000000000002
 13       0.000000000002
 14       0.000000000000
 15      -0.000000000002
 16       0.000000000002
 17      -0.000000000003
 18       0.000000000003
 19      -0.000000000002
 20       0.000000000002
 21      -0.000000000000
 22      -0.124736824328
 23      -0.012718138014
 24       0.126550509065
 25      -0.212338384131
 26      -0.021649972991
 27       0.215425803455
 28      -0.319977196841
 29      -0.032624801494
 30       0.324629694353
 31      -0.168282918513
 32      -0.017158087767
 33       0.170729767471
 34      -0.005642581949
 35      -0.000575316557
 36       0.005724625595
 37      -0.003068075844
 38      -0.000312820211
 39       0.003112685882
 40       0.002121264448
 41       0.000216283605
 42      -0.002152107784
 43      -0.001302004937
 44      -0.000132752132
 45       0.001320936185
 46       0.000782224778
 47       0.000079755457
 48      -0.000793598394
 49      -0.000463453746
 50      -0.000047253629
 51       0.000470192405
 52       0.000259149945
 53       0.000026422862
 54      -0.000262918012
 55      -0.000125301983
 56      -0.000012775759
 57       0.000127123887
 58       0.000039225719
 59       0.000003999443
 60      -0.000039796066
 61       0.000000000035
 62       0.000000000001
 63       0.000000000076
 64      -0.000000000070
 65      -0.000000000022
 66       0.000000000025
 67      -0.000000000047
 68       0.000000000133
 69      -0.000000000171
 70       0.000000000017
 71      -0.000000000036
 72      -0.000000000028
 73      -0.000000000033
 74      -0.000000000053
 75      -0.000000000005
 76       0.000000000012
 77      -0.000000000008
 78       0.000000000034
 79      -0.000000000016
 80       0.000000000004
 81      -0.000000000001
 82       0.000000000014
 83      -0.000000000022
 84       0.000000000028
 85      -0.000000000003
 86       0.000000000003
 87      -0.000000000000
 88       0.000000000002
 89       0.000000000013
 90       0.000000000003
 91       0.000000000003
 92       0.000000000025
 93      -0.000000000009
 94       0.000000000002
 95      -0.000000000015
 96      -0.000000000003
 97      -0.000000000019
 98       0.000000000004
 99       0.000000000004
100       0.000000000012
101       0.000000000001
102       0.000000000009
103      -0.000000000002
104      -0.000000000001
105      -0.000000000006
106      -0.000000000000
107      -0.000000000003
108       0.000000000000
109       0.000000000001
110       0.000000000002
111      -0.000000058478
112       0.000000094204
113      -0.000000031180
114      -0.000000198295
115       0.000000060511
116       0.000000093446
117       0.000000002607
118       0.000000021620
119       0.000000061869
120       0.000000004496
121      -0.000000056008
122      -0.000000016197
123      -0.000000027449
124      -0.000000009677
125      -0.000000009197
126      -0.000000060430
127       0.000000000572
128       0.000000069318
129       0.000000004698
130       0.000000009242
131       0.000000007148
132       0.000000006948
133       0.000000014470
134       0.000000001835
135      -0.000000010702
136      -0.000000005540
137      -0.000000009256
138      -0.000000002602
139      -0.000000003055
140      -0.000000010223
141      -0.000000000526
142       0.000000009891
143       0.000000002178
144       0.000000003772
145       0.000000001498
146       0.000000001418
147       0.000000004509
148       0.000000000261
149      -0.000000004268
150      -0.000000001022
151      -0.000000001772
152      -0.000000000671
153      -0.000000000494
154      -0.000000001601
155      -0.000000000088
156       0.000000001526
157       0.000000000355
158       0.000000000618
159       0.000000000236
 Sym=     1a
 Ene= -6.74761245952321E+02
 Spin= Alpha
 Occup= 1.000000
  1       0.000000000016
  2       0.000000000014
  3       0.000000000021
  4       0.000000000044
  5       0.000000000054
  6       0.000000000099
  7       0.000000000004
  8      -0.000000000165
  9      -0.000000000358
 10       0.000000000070
 11       0.000000000066
 12      -0.000000000066
 13       0.000000000057
 14      -0.000000000061
 15       0.000000000065
 16      -0.000000000057
 17       0.000000000044
 18      -0.000000000033
 19       0.000000000023
 20      -0.000000000013
 21       0.000000000004
 22       0.037416544355
 23       0.165740383983
 24       0.053536963561
 25       0.063693853381
 26       0.282138393517
 27       0.091135500751
 28       0.095981601421
 29       0.425160253430
 30       0.137333994730
 31       0.050478713282
 32       0.223600588613
 33       0.072226793988
 34       0.001692560564
 35       0.007497368570
 36       0.002421777362
 37       0.000920331044
 38       0.004076699955
 39       0.001316843564
 40      -0.000636305465
 41      -0.002818579725
 42      -0.000910449254
 43       0.000390553658
 44       0.001729997085
 45       0.000558818497
 46      -0.000234641018
 47      -0.001039366245
 48      -0.000335732987
 49       0.000139020212
 50       0.000615804181
 51       0.000198915235
 52      -0.000077736071
 53      -0.000344339846
 54      -0.000111227635
 55       0.000037586350
 56       0.000166492569
 57       0.000053779935
 58      -0.000011766369
 59      -0.000052120337
 60      -0.000016835757
 61       0.000000000003
 62      -0.000000000030
 63       0.000000000046
 64      -0.000000000104
 65       0.000000000030
 66       0.000000000088
 67      -0.000000000121
 68       0.000000000046
 69      -0.000000000225
 70       0.000000000003
 71       0.000000000050
 72      -0.000000000004
 73      -0.000000000036
 74      -0.000000000025
 75       0.000000000036
 76       0.000000000007
 77      -0.000000000020
 78       0.000000000005
 79      -0.000000000033
 80      -0.000000000002
 81      -0.000000000019
 82       0.000000000019
 83       0.000000000004
 84       0.000000000036
 85      -0.000000000006
 86      -0.000000000008
 87       0.000000000009
 88       0.000000000001
 89       0.000000000009
 90      -0.000000000004
 91      -0.000000000009
 92      -0.000000000017
 93       0.000000000002
 94       0.000000000014
 95       0.000000000013
 96       0.000000000003
 97       0.000000000018
 98      -0.000000000002
 99      -0.000000000004
100      -0.000000000011
101      -0.000000000002
102      -0.000000000009
103       0.000000000001
104       0.000000000003
105       0.000000000006
106       0.000000000001
107       0.000000000003
108      -0.000000000000
109      -0.000000000001
110      -0.000000000002
111       0.000000040023
112      -0.000000053163
113       0.000000279365
114      -0.000000080547
115      -0.000000196686
116      -0.000000055799
117       0.000000008709
118      -0.000000021532
119       0.000000027625
120      -0.000000036422
121       0.000000005550
122       0.000000067035
123      -0.000000000537
124       0.000000032842
125       0.000000011485
126      -0.000000014564
127      -0.000000008010
128       0.000000006180
129      -0.000000026408
130       0.000000007701
131      -0.000000026572
132      -0.000000006514
133       0.000000008427
134      -0.000000015478
135       0.000000003141
136       0.000000021803
137       0.000000001016
138       0.000000008454
139       0.000000003144
140      -0.000000003999
141       0.000000004083
142      -0.000000000389
143      -0.000000009335
144       0.000000000387
145      -0.000000005177
146      -0.000000001439
147       0.000000001832
148      -0.000000002055
149       0.000000000235
150       0.000000004329
151      -0.000000000128
152       0.000000002313
153       0.000000000504
154      -0.000000000643
155       0.000000000701
156      -0.000000000076
157      -0.000000001511
158       0.000000000051
159      -0.000000000817
 Sym=     1a
 Ene= -6.74761223011123E+02
 Spin= Alpha
 Occup= 1.000000
  1      -0.000000000004
  2      -0.000000000004
  3      -0.000000000005
  4      -0.000000000012
  5      -0.000000000014
  6      -0.000000000027
  7       0.000000000000
  8       0.000000000039
  9       0.000000000106
 10      -0.000000000027
 11      -0.000000000018
 12       0.000000000026
 13      -0.000000000035
 14       0.000000000054
 15      -0.000000000067
 16       0.000000000061
 17      -0.000000000046
 18       0.000000000030
 19      -0.000000000017
 20       0.000000000008
 21      -0.000000000002
 22      -0.121559847085
 23       0.064066007908
 24      -0.113379148493
 25      -0.206930256327
 26       0.109059000623
 27      -0.193004325212
 28      -0.311827533035
 29       0.164343289869
 30      -0.290842255969
 31      -0.163996537265
 32       0.086431529153
 33      -0.152959947079
 34      -0.005498831636
 35       0.002898063860
 36      -0.005128772833
 37      -0.002990001293
 38       0.001575828239
 39      -0.002788781059
 40       0.002067246661
 41      -0.001089506461
 42       0.001928125708
 43      -0.001268840691
 44       0.000668720470
 45      -0.001183450643
 46       0.000762308435
 47      -0.000401761431
 48       0.000711006840
 49      -0.000451652762
 50       0.000238035748
 51      -0.000421257570
 52       0.000252551128
 53      -0.000133102691
 54       0.000235555020
 55      -0.000122111611
 56       0.000064356807
 57      -0.000113893782
 58       0.000038226914
 59      -0.000020146830
 60       0.000035654332
 61       0.000000000019
 62      -0.000000000022
 63      -0.000000000014
 64      -0.000000000061
 65       0.000000000027
 66       0.000000000062
 67       0.000000000002
 68       0.000000000029
 69      -0.000000000074
 70       0.000000000110
 71      -0.000000000016
 72      -0.000000000015
 73      -0.000000000021
 74       0.000000000017
 75      -0.000000000032
 76       0.000000000015
 77       0.000000000003
 78       0.000000000032
 79      -0.000000000012
 80       0.000000000013
 81      -0.000000000008
 82       0.000000000001
 83      -0.000000000022
 84       0.000000000007
 85      -0.000000000009
 86      -0.000000000004
 87      -0.000000000011
 88       0.000000000007
 89       0.000000000002
 90       0.000000000007
 91       0.000000000010
 92       0.000000000062
 93      -0.000000000013
 94      -0.000000000009
 95      -0.000000000042
 96      -0.000000000010
 97      -0.000000000052
 98       0.000000000008
 99       0.000000000009
100       0.000000000032
101       0.000000000005
102       0.000000000026
103      -0.000000000004
104      -0.000000000004
105      -0.000000000016
106      -0.000000000002
107      -0.000000000008
108       0.000000000001
109       0.000000000001
110       0.000000000005
111      -0.000000077861
112       0.000000212425
113       0.000000088722
114       0.000000165554
115      -0.000000093638
116       0.000000225296
117      -0.000000005537
118       0.000000050999
119      -0.000000053933
120      -0.000000018800
121      -0.000000035602
122       0.000000030369
123      -0.000000037059
124       0.000000004846
125      -0.000000029378
126       0.000000014277
127       0.000000003087
128       0.000000006126
129      -0.000000011378
130      -0.000000000477
131      -0.000000003031
132       0.000000015079
133      -0.000000018698
134      -0.000000006836
135      -0.000000012870
136       0.000000009972
137      -0.000000014529
138       0.000000001377
139      -0.000000007556
140       0.000000007170
141       0.000000002403
142       0.000000004569
143      -0.000000004210
144       0.000000004538
145      -0.000000000718
146       0.000000003439
147      -0.000000003376
148      -0.000000001144
149      -0.000000002172
150       0.000000001957
151      -0.000000002222
152       0.000000000329
153      -0.000000001207
154       0.000000001173
155       0.000000000396
156       0.000000000752
157      -0.000000000682
158       0.000000000764
159      -0.000000000116
 Sym=     1a
 Ene= -2.06133335951601E+02
 Spin= Alpha
 Occup= 1.000000
  1       0.017570454566
  2       0.014771342361
  3       0.024513876140
  4       0.043856694638
  5       0.070032533694
  6       0.094376024765
  7       0.026322091626
  8      -0.294959461003
  9      -0.691829927620
 10       0.199383796931
 11       0.987453438807
 12       0.139749184818
 13       0.019444421015
 14      -0.014891612657
 15       0.010535410653
 16      -0.007233517058
 17       0.004759641158
 18      -0.002970771725
 19       0.001687182047
 20      -0.000774606322
 21       0.000208926714
 22      -0.000000000326
 23      -0.000000000462
 24      -0.000000000142
 25      -0.000000000597
 26      -0.000000000845
 27      -0.000000000262
 28      -0.000000000900
 29      -0.000000001273
 30      -0.000000000393
 31       0.000000000167
 32       0.000000000238
 33       0.000000000070
 34       0.000000002637
 35       0.000000003727
 36       0.000000001160
 37       0.000000000940
 38       0.000000001336
 39       0.000000000410
 40      -0.000000000084
 41      -0.000000000120
 42      -0.000000000034
 43       0.000000000070
 44       0.000000000100
 45       0.000000000029
 46      -0.000000000026
 47      -0.000000000035
 48      -0.000000000012
 49       0.000000000017
 50       0.000000000024
 51       0.000000000010
 52      -0.000000000009
 53      -0.000000000013
 54      -0.000000000006
 55       0.000000000004
 56       0.000000000006
 57       0.000000000003
 58      -0.000000000001
 59      -0.000000000001
 60      -0.000000000001
 61       0.000000511781
 62      -0.000001925869
 63      -0.000000108836
 64       0.000000814850
 65       0.000000259621
 66       0.000001155111
 67      -0.000004349691
 68      -0.000000244126
 69       0.000001839879
 70       0.000000586611
 71       0.000000460603
 72      -0.000001737003
 73      -0.000000098149
 74       0.000000735120
 75       0.000000234691
 76      -0.000000013531
 77       0.000000051843
 78       0.000000003303
 79      -0.000000022061
 80      -0.000000007242
 81       0.000000036665
 82      -0.000000138541
 83      -0.000000008024
 84       0.000000058695
 85       0.000000018843
 86      -0.000000011664
 87       0.000000043961
 88       0.000000002369
 89      -0.000000018579
 90      -0.000000005945
 91       0.000000008453
 92      -0.000000032102
 93      -0.000000001920
 94       0.000000013624
 95       0.000000004414
 96      -0.000000003912
 97       0.000000014828
 98       0.000000000862
 99      -0.000000006286
100      -0.000000002030
101       0.000000001923
102      -0.000000007283
103      -0.000000000416
104       0.000000003084
105       0.000000000995
106      -0.000000000640
107       0.000000002430
108       0.000000000140
109      -0.000000001029
110      -0.000000000333
111       0.000000000002
112      -0.000000000119
113       0.000000000088
114      -0.000000000128
115      -0.000000000206
116      -0.000000000076
117       0.000000000277
118      -0.000000000041
119       0.000000000112
120      -0.000000000108
121       0.000000000198
122       0.000000000247
123       0.000000000105
124      -0.000000000327
125       0.000000000534
126       0.000000000122
127      -0.000000000175
128      -0.000000000359
129      -0.000000000066
130      -0.000000000241
131       0.000000000308
132      -0.000000000357
133      -0.000000000129
134       0.000000000167
135       0.000000000182
136      -0.000000000033
137       0.000000000127
138      -0.000000000018
139       0.000000000166
140       0.000000000050
141      -0.000000000070
142      -0.000000000099
143       0.000000000000
144      -0.000000000064
145       0.000000000062
146      -0.000000000072
147      -0.000000000023
148       0.000000000032
149       0.000000000042
150      -0.000000000002
151       0.000000000027
152      -0.000000000046
153       0.000000000024
154       0.000000000007
155      -0.000000000010
156      -0.000000000015
157      -0.000000000000
158      -0.000000000009
159       0.000000000016
 Sym=     1a
 Ene= -1.69517136206232E+02
 Spin= Alpha
 Occup= 1.000000
  1      -0.000000000030
  2      -0.000000000026
  3      -0.000000000042
  4      -0.000000000078
  5      -0.000000000117
  6      -0.000000000172
  7      -0.000000000028
  8       0.000000000497
  9       0.000000001313
 10      -0.000000000671
 11      -0.000000001487
 12      -0.000000000251
 13       0.000000000013
 14       0.000000000007
 15       0.000000000052
 16      -0.000000000058
 17       0.000000000047
 18      -0.000000000032
 19       0.000000000012
 20      -0.000000000000
 21      -0.000000000002
 22      -0.069715129836
 23      -0.007153574189
 24       0.070707856737
 25      -0.127481298143
 26      -0.013081047532
 27       0.129296601502
 28      -0.195510116738
 29      -0.020061586603
 30       0.198294134586
 31       0.084627453789
 32       0.008683750329
 33      -0.085832528932
 34       0.519549418815
 35       0.053311745648
 36      -0.526947679209
 37       0.178937336151
 38       0.018361029021
 39      -0.181485360707
 40      -0.005330936856
 41      -0.000547015239
 42       0.005406848293
 43       0.004256933373
 44       0.000436810182
 45      -0.004317551099
 46      -0.002435242916
 47      -0.000249884264
 48       0.002469919816
 49       0.001367970155
 50       0.000140369677
 51      -0.001387449559
 52      -0.000756009518
 53      -0.000077575254
 54       0.000766774958
 55       0.000364151007
 56       0.000037366109
 57      -0.000369336407
 58      -0.000113985125
 59      -0.000011696196
 60       0.000115608244
 61      -0.000000001040
 62      -0.000000000577
 63      -0.000000001643
 64       0.000000000755
 65       0.000000000556