[Molden Format]
[Title]
 Molden file created by orca_2mkl for BaseName=/data01/Nikolayandreadi/heavy/CC4/HF

[Atoms] AU
F    1   9          2.7430716539         0.0000000000         0.0000000000 
H    2   1          1.0061449958         0.0000000000         0.0000000000 
[GTO]
  1 0
s   6 1.0 
    35479.1004410000         1.9229128581
     5318.4728983000         2.2734773358
     1210.4810975000         3.4747482552
      342.8551814000         5.2879612972
      112.0194318100         7.1666332516
       40.7147402500         7.7556346254
s   1 1.0 
       16.0396781100         5.7122450312
s   1 1.0 
        6.5038186700         2.9025947842
s   1 1.0 
        1.5440477500         0.9872011154
s   1 1.0 
        0.6122345300        -0.4932856223
s   1 1.0 
        0.2402798000         0.2445952611
p   4 1.0 
       80.2339004800         4.2755032106
       18.5940107400         4.7314752302
        5.6867902700         4.0864798013
        1.9511006300         2.2989954518
p   1 1.0 
        0.6697021100         0.8635593126
p   1 1.0 
        0.2165130000         0.2105208234
d   1 1.0 
        3.1070000000        20.7284714039
d   1 1.0 
        0.8550000000         2.1672588463
f   1 1.0 
        1.9170000000        24.6547062912

  2 0
s   3 1.0 
       34.0613410000         0.2556300129
        5.1235746000         0.4613599287
        1.1646626000         0.6811215012
s   1 1.0 
        0.3272304100         0.3083545312
s   1 1.0 
        0.1030724100         0.1296483265
p   1 1.0 
        0.8000000000         1.0784563492

[5D]
[7F]
[9G]
[MO]
 Sym=     1a
 Ene= -2.63168088100924E+01
 Spin= Alpha
 Occup= 2.000000
  1       0.426736059769
  2       0.413714527517
  3       0.258551659772
  4       0.024366247486
  5       0.009517001810
  6       0.003320129194
  7      -0.001290806113
  8       0.000000000000
  9      -0.000000000000
 10       0.001682069339
 11       0.000000000000
 12       0.000000000000
 13      -0.000437334994
 14      -0.000000000000
 15      -0.000000000000
 16      -0.000025100577
 17      -0.000000000000
 18       0.000000000000
 19       0.000043475474
 20      -0.000000000000
 21       0.000306749774
 22       0.000000000000
 23      -0.000000000000
 24      -0.000531306193
 25       0.000000000000
 26       0.000000000000
 27      -0.000054800069
 28      -0.000000000000
 29      -0.000000000000
 30       0.000000000000
 31      -0.000070746585
 32      -0.000000000000
 33       0.000695879893
 34       0.000937936812
 35      -0.000909850930
 36       0.000915192692
 37       0.000000000000
 38       0.000000000000
 Sym=     1a
 Ene= -1.59999777669354E+00
 Spin= Alpha
 Occup= 2.000000
  1      -0.101950828512
  2      -0.157578366986
  3      -0.104257360589
  4       0.357634653973
  5      -0.505679436270
  6       0.198083183787
  7      -0.044932878540
  8      -0.000000000003
  9       0.000000000000
 10      -0.050243812383
 11      -0.000000000002
 12       0.000000000000
 13      -0.005513169117
 14       0.000000000000
 15       0.000000000000
 16      -0.001268282057
 17      -0.000000000000
 18       0.000000000000
 19       0.002196728960
 20       0.000000000000
 21      -0.005913660857
 22      -0.000000000000
 23      -0.000000000000
 24       0.010242761062
 25      -0.000000000000
 26       0.000000000000
 27       0.002193804321
 28       0.000000000000
 29       0.000000000000
 30       0.000000000000
 31       0.002832189201
 32       0.000000000000
 33       0.082919545180
 34       0.048607285219
 35       0.002231216385
 36       0.015562222718
 37      -0.000000000000
 38       0.000000000000
 Sym=     1a
 Ene= -7.63616999895666E-01
 Spin= Alpha
 Occup= 2.000000
  1      -0.024464032214
  2      -0.038412841984
  3      -0.025873176374
  4       0.102777801221
  5      -0.122067268934
  6       0.159017507505
  7       0.418846288728
  8      -0.000000000003
  9      -0.000000000000
 10       0.360366682344
 11      -0.000000000003
 12      -0.000000000000
 13       0.164063282414
 14      -0.000000000001
 15      -0.000000000000
 16       0.003782717225
 17       0.000000000000
 18      -0.000000000000
 19      -0.006551858424
 20       0.000000000000
 21       0.013011803470
 22      -0.000000000000
 23       0.000000000000
 24      -0.022537104709
 25       0.000000000000
 26      -0.000000000000
 27      -0.003571451337
 28       0.000000000000
 29      -0.000000000000
 30      -0.000000000000
 31      -0.004610723850
 32       0.000000000000
 33      -0.159157806223
 34      -0.211518143628
 35      -0.029488484098
 36      -0.020058743532
 37      -0.000000000000
 38      -0.000000000000
 Sym=     1a
 Ene= -6.47036324893595E-01
 Spin= Alpha
 Occup= 2.000000
  1       0.000000000000
  2       0.000000000000
  3      -0.000000000000
  4       0.000000000000
  5       0.000000000000
  6      -0.000000000000
  7       0.000000000000
  8      -0.002362100771
  9       0.496186537052
 10       0.000000000000
 11      -0.002035864612
 12       0.427656865664
 13       0.000000000000
 14      -0.001312301658
 15       0.275664113618
 16      -0.000000000000
 17      -0.002831728147
 18       0.000000000000
 19       0.000000000000
 20       0.000013480469
 21       0.000000000000
 22      -0.017758962987
 23       0.000000000000
 24      -0.000000000000
 25       0.000084541714
 26      -0.002278342923
 27       0.000000000000
 28       0.000004427891
 29       0.002941328065
 30       0.000000000000
 31       0.000000000000
 32       0.000017149148
 33      -0.000000000000
 34       0.000000000000
 35      -0.000000000000
 36       0.000000000000
 37      -0.000123874316
 38       0.026021230204
 Sym=     1a
 Ene= -6.47036324891360E-01
 Spin= Alpha
 Occup= 2.000000
  1      -0.000000000001
  2      -0.000000000002
  3       0.000000000001
  4      -0.000000000001
  5      -0.000000000005
  6       0.000000000002
  7       0.000000000002
  8       0.496186537052
  9       0.002362100771
 10       0.000000000002
 11       0.427656865663
 12       0.002035864612
 13      -0.000000000000
 14       0.275664113619
 15       0.001312301658
 16       0.000000000000
 17      -0.000013480469
 18       0.000000000000
 19      -0.000000000000
 20      -0.002831728147
 21       0.000000000000
 22      -0.000084541714
 23      -0.000000000000
 24      -0.000000000000
 25      -0.017758962986
 26      -0.000010846073
 27      -0.000000000000
 28      -0.000930129603
 29       0.000014002220
 30       0.000000000000
 31      -0.000000000000
 32      -0.003602376463
 33       0.000000000002
 34      -0.000000000006
 35       0.000000000002
 36       0.000000000000
 37       0.026021230204
 38       0.000123874316
 Sym=     1a
 Ene= 1.28289456344148E-01
 Spin= Alpha
 Occup= 0.000000
  1      -0.021135251974
  2      -0.028397837694
  3      -0.034450309933
  4       0.154467998540
  5       0.135535097316
  6       0.873317413393
  7      -0.140681298133
  8       0.000000000000
  9      -0.000000000000
 10      -0.083719650240
 11      -0.000000000000
 12      -0.000000000000
 13      -0.332923101793
 14       0.000000000000
 15       0.000000000000
 16       0.000156079674
 17       0.000000000000
 18       0.000000000000
 19      -0.000270337925
 20      -0.000000000000
 21       0.000000777977
 22       0.000000000000
 23      -0.000000000000
 24      -0.000001347496
 25      -0.000000000000
 26       0.000000000000
 27       0.001131113629
 28       0.000000000000
 29       0.000000000000
 30       0.000000000000
 31       0.001460261416
 32       0.000000000000
 33      -0.052769848120
 34      -0.002614234319
 35      -1.507672950393
 36       0.033547881006
 37       0.000000000000
 38       0.000000000000
 Sym=     1a
 Ene= 5.74866896227343E-01
 Spin= Alpha
 Occup= 0.000000
  1       0.017214806379
  2       0.031291319147
  3       0.008426472137
  4      -0.002593099014
  5       0.299284011277
  6      -0.642251827638
  7       0.181196296906
  8      -0.000000000000
  9       0.000000000000
 10       0.353698616311
 11      -0.000000000002
 12       0.000000000000
 13       0.951796107821
 14       0.000000000003
 15      -0.000000000000
 16      -0.010714811043
 17      -0.000000000000
 18      -0.000000000000
 19       0.018558597120
 20       0.000000000000
 21       0.030175943149
 22      -0.000000000000
 23       0.000000000000
 24      -0.052266266701
 25      -0.000000000000
 26      -0.000000000000
 27      -0.003972748313
 28      -0.000000000000
 29      -0.000000000000
 30      -0.000000000000
 31      -0.005128796019
 32      -0.000000000000
 33       0.124548846447
 34       2.377254717832
 35      -0.955208861392
 36       0.092300801949
 37       0.000000000000
 38       0.000000000000
 Sym=     1a
 Ene= 7.05446610215446E-01
 Spin= Alpha
 Occup= 0.000000
  1      -0.000000000000
  2      -0.000000000000
  3       0.000000000000
  4      -0.000000000000
  5      -0.000000000000
  6      -0.000000000000
  7       0.000000000000
  8       0.000840996881
  9       0.270593094429
 10       0.000000000000
 11       0.002149026767
 12       0.691455362364
 13      -0.000000000000
 14      -0.003883572142
 15      -1.249550179448
 16      -0.000000000000
 17      -0.004050345806
 18       0.000000000000
 19      -0.000000000000
 20      -0.000012588378
 21       0.000000000000
 22       0.006205591520
 23       0.000000000000
 24      -0.000000000000
 25       0.000019286830
 26      -0.000612581799
 27       0.000000000000
 28      -0.000000777260
 29       0.000790839702
 30       0.000000000000
 31      -0.000000000000
 32      -0.000003010314
 33       0.000000000000
 34      -0.000000000000
 35       0.000000000000
 36       0.000000000000
 37       0.000019528217
 38       0.006283258363
 Sym=     1a
 Ene= 7.05446610215549E-01
 Spin= Alpha
 Occup= 0.000000
  1       0.000000000006
  2       0.000000000013
  3      -0.000000000001
  4       0.000000000022
  5       0.000000000232
  6       0.000000000187
  7      -0.000000000058
  8       0.270593094429
  9      -0.000840996881
 10      -0.000000000145
 11       0.691455362364
 12      -0.002149026767
 13       0.000000000316
 14      -1.249550179449
 15       0.003883572142
 16      -0.000000000001
 17       0.000012588378
 18      -0.000000000000
 19       0.000000000002
 20      -0.004050345806
 21       0.000000000003
 22      -0.000019286830
 23       0.000000000000
 24      -0.000000000005
 25       0.006205591519
 26       0.000001903890
 27      -0.000000000000
 28      -0.000250085472
 29      -0.000002457911
 30       0.000000000000
 31      -0.000000000000
 32      -0.000968576869
 33       0.000000000006
 34       0.000000000063
 35       0.000000000019
 36       0.000000000015
 37       0.006283258364
 38      -0.000019528217
 Sym=     1a
 Ene= 7.08864017554857E-01
 Spin= Alpha
 Occup= 0.000000
  1      -0.025170972556
  2      -0.055336213075
  3       0.009780151254
  4      -0.095390759834
  5      -0.908675648615
  6      -0.714346412995
  7       0.234079178191
  8       0.000000000069
  9      -0.000000000000
 10       0.577099803662
 11       0.000000000176
 12      -0.000000000001
 13      -1.251496506194
 14      -0.000000000318
 15       0.000000000001
 16       0.003849727367
 17       0.000000000000
 18      -0.000000000000
 19      -0.006667923395
 20      -0.000000000001
 21      -0.012052319872
 22      -0.000000000000
 23       0.000000000000
 24       0.020875230367
 25       0.000000000001
 26      -0.000000000000
 27       0.000268190356
 28      -0.000000000000
 29      -0.000000000000
 30      -0.000000000000
 31       0.000346232261
 32      -0.000000000000
 33      -0.006700876653
 34      -0.257106445149
 35      -0.085754589243
 36      -0.057700950415
 37       0.000000000002
 38      -0.000000000000
 Sym=     1a
 Ene= 8.96411683930653E-01
 Spin= Alpha
 Occup= 0.000000
  1       0.043719153976
  2       0.097725094546
  3      -0.021210526385
  4       0.215380064948
  5       2.103554621540
  6       3.504039707267
  7       0.138577763100
  8      -0.000000000001
  9       0.000000000000
 10       0.201822594170
 11      -0.000000000002
 12       0.000000000000
 13      -1.473743282275
 14       0.000000000003
 15      -0.000000000000
 16       0.009384352203
 17      -0.000000000000
 18      -0.000000000000
 19      -0.016254174812
 20       0.000000000000
 21      -0.038871025495
 22      -0.000000000000
 23       0.000000000000
 24       0.067326591100
 25       0.000000000000
 26      -0.000000000000
 27       0.004642425866
 28      -0.000000000000
 29      -0.000000000000
 30      -0.000000000000
 31       0.005993346022
 32       0.000000000000
 33       0.017435205621
 34      -1.093971310090
 35      -1.053428182172
 36      -0.177903418674
 37      -0.000000000000
 38       0.000000000000
 Sym=     1a
 Ene= 1.62631889714845E+00
 Spin= Alpha
 Occup= 0.000000
  1       0.000000000000
  2       0.000000000000
  3      -0.000000000000
  4       0.000000000001
  5       0.000000000002
  6       0.000000000000
  7      -0.000000000000
  8      -0.065151663409
  9      -0.000059174934
 10       0.000000000000
 11      -0.065458649890
 12      -0.000059453759
 13       0.000000000001
 14      -0.272449738464
 15      -0.000247456388
 16      -0.000000000000
 17      -0.000010404663
 18      -0.000000000000
 19       0.000000000000
 20      -0.011455544619
 21       0.000000000000
 22      -0.000275599777
 23       0.000000000000
 24      -0.000000000001
 25      -0.303435638027
 26       0.000005630491
 27       0.000000000000
 28       0.002530803044
 29      -0.000007268932
 30       0.000000000000
 31       0.000000000000
 32       0.009801758042
 33      -0.000000000002
 34       0.000000000004
 35      -0.000000000001
 36       0.000000000000
 37       0.878673822069
 38       0.000798068120
 Sym=     1a
 Ene= 1.62631889715540E+00
 Spin= Alpha
 Occup= 0.000000
  1      -0.000000000000
  2       0.000000000000
  3      -0.000000000000
  4       0.000000000000
  5       0.000000000000
  6       0.000000000000
  7       0.000000000000
  8      -0.000059174934
  9       0.065151663410
 10      -0.000000000000
 11      -0.000059453759
 12       0.065458649888
 13      -0.000000000000
 14      -0.000247456388
 15       0.272449738465
 16      -0.000000000000
 17       0.011455544620
 18       0.000000000000
 19       0.000000000000
 20      -0.000010404663
 21      -0.000000000000
 22       0.303435638036
 23       0.000000000000
 24       0.000000000000
 25      -0.000275599777
 26      -0.006199176097
 27       0.000000000000
 28       0.000002298638
 29       0.008003101928
 30       0.000000000000
 31      -0.000000000000
 32       0.000008902588
 33      -0.000000000000
 34      -0.000000000000
 35      -0.000000000000
 36      -0.000000000000
 37       0.000798068120
 38      -0.878673822061
 Sym=     1a
 Ene= 2.08605024187717E+00
 Spin= Alpha
 Occup= 0.000000
  1      -0.011534056477
  2      -0.006007444532
  3      -0.046748372837
  4       0.320728675494
  5       0.657520182587
  6      -0.920142289372
  7      -0.221715996673
  8      -0.000000000000
  9      -0.000000000000
 10       0.555977270982
 11       0.000000000005
 12       0.000000000000
 13       0.843182414345
 14      -0.000000000003
 15       0.000000000000
 16      -0.006723537732
 17       0.000000000000
 18      -0.000000000000
 19       0.011645508959
 20       0.000000000000
 21       0.400951656669
 22      -0.000000000000
 23       0.000000000000
 24      -0.694468640730
 25      -0.000000000001
 26      -0.000000000000
 27      -0.032382696185
 28       0.000000000000
 29       0.000000000000
 30      -0.000000000000
 31      -0.041805881010
 32       0.000000000000
 33      -0.977689124720
 34       3.078040827888
 35      -0.695593710358
 36       0.581722107233
 37      -0.000000000002
 38      -0.000000000000
 Sym=     1a
 Ene= 2.26390430821555E+00
 Spin= Alpha
 Occup= 0.000000
  1      -0.000000000000
  2      -0.000000000000
  3      -0.000000000000
  4       0.000000000000
  5       0.000000000000
  6      -0.000000000001
  7      -0.000000000000
  8       0.000000000000
  9      -0.000000000000
 10       0.000000000001
 11      -0.000000000000
 12      -0.000000000000
 13       0.000000000000
 14       0.000000000000
 15      -0.000000000000
 16       0.005507772820
 17       0.000000000000
 18      -0.010520682948
 19       0.003179914120
 20      -0.000000000000
 21      -0.450760724315
 22       0.000000000000
 23       0.861021472928
 24      -0.260246825523
 25       0.000000000000
 26       0.000000000000
 27       0.003519695960
 28       0.000000000000
 29      -0.000000000000
 30      -0.007364846286
 31      -0.002726344767
 32       0.000000000000
 33       0.000000000000
 34       0.000000000000
 35       0.000000000000
 36       0.000000000001
 37       0.000000000000
 38       0.000000000000
 Sym=     1a
 Ene= 2.26390430821561E+00
 Spin= Alpha
 Occup= 0.000000
  1      -0.000000000000
  2      -0.000000000000
  3      -0.000000000000
  4       0.000000000000
  5       0.000000000000
  6      -0.000000000000
  7      -0.000000000000
  8       0.000000000000
  9      -0.000000000000
 10       0.000000000000
 11       0.000000000000
 12      -0.000000000000
 13      -0.000000000000
 14       0.000000000000
 15       0.000000000000
 16      -0.009111178698
 17       0.000000000000
 18      -0.006359828241
 19      -0.005260341474
 20       0.000000000000
 21       0.745666468759
 22      -0.000000000000
 23       0.520493651047
 24       0.430510736464
 25      -0.000000000000
 26       0.000000000000
 27      -0.005822422220
 28       0.000000000000
 29      -0.000000000000
 30      -0.004452102362
 31       0.004510028859
 32      -0.000000000000
 33       0.000000000000
 34       0.000000000000
 35       0.000000000000
 36       0.000000000001
 37      -0.000000000000
 38       0.000000000000
 Sym=     1a
 Ene= 2.54795527134106E+00
 Spin= Alpha
 Occup= 0.000000
  1       0.011763969968
  2       0.034383404970
  3      -0.027363701113
  4       0.331858615763
  5       1.523355320868
  6      -0.664175633817
  7      -0.014148950767
  8      -0.000000000000
  9      -0.000000000000
 10       1.367210428396
 11       0.000000000001
 12       0.000000000000
 13       0.307407152124
 14      -0.000000000000
 15      -0.000000000000
 16      -0.019047411439
 17      -0.000000000000
 18       0.000000000000
 19       0.032991084365
 20       0.000000000000
 21       0.026549787828
 22       0.000000000000
 23      -0.000000000001
 24      -0.045985581448
 25      -0.000000000001
 26      -0.000000000000
 27      -0.052343407013
 28      -0.000000000000
 29      -0.000000000000
 30       0.000000000000
 31      -0.067575047882
 32       0.000000000000
 33      -0.355932686357
 34       2.420797037879
 35      -0.332757494395
 36       1.871878455090
 37      -0.000000000001
 38       0.000000000000
 Sym=     1a
 Ene= 2.75262999472459E+00
 Spin= Alpha
 Occup= 0.000000
  1       0.000000000000
  2      -0.000000000000
  3       0.000000000000
  4      -0.000000000000
  5       0.000000000001
  6      -0.000000000003
  7      -0.000000000000
  8      -0.094517650520
  9      -0.000110728070
 10       0.000000000002
 11       0.021368022268
 12       0.000025032783
 13       0.000000000001
 14      -0.280213238539
 15      -0.000328271713
 16      -0.000000000000
 17      -0.000013523713
 18       0.000000000000
 19       0.000000000000
 20      -0.011543862040
 21       0.000000000001
 22       0.001287647479
 23      -0.000000000000
 24      -0.000000000001
 25       1.099137866135
 26       0.000000599980
 27      -0.000000000000
 28       0.000209081931
 29      -0.000000774571
 30       0.000000000000
 31      -0.000000000000
 32       0.000809770836
 33      -0.000000000000
 34       0.000000000005
 35      -0.000000000001
 36       0.000000000003
 37       0.855611447919
 38       0.001002354625
 Sym=     1a
 Ene= 2.75262999473055E+00
 Spin= Alpha
 Occup= 0.000000
  1       0.000000000000
  2       0.000000000000
  3       0.000000000000
  4       0.000000000000
  5       0.000000000000
  6      -0.000000000000
  7      -0.000000000000
  8      -0.000110728070
  9       0.094517650521
 10       0.000000000000
 11       0.000025032783
 12      -0.021368022269
 13       0.000000000000
 14      -0.000328271713
 15       0.280213238541
 16       0.000000000000
 17       0.011543862040
 18       0.000000000000
 19       0.000000000000
 20      -0.000013523713
 21      -0.000000000000
 22      -1.099137866132
 23       0.000000000000
 24      -0.000000000000
 25       0.001287647479
 26      -0.000512144045
 27      -0.000000000000
 28       0.000000244941
 29       0.000661175119
 30      -0.000000000000
 31      -0.000000000000
 32       0.000000948652
 33      -0.000000000000
 34       0.000000000000
 35      -0.000000000000
 36       0.000000000000
 37       0.001002354625
 38      -0.855611447927
 Sym=     1a
 Ene= 3.27079553843976E+00
 Spin= Alpha
 Occup= 0.000000
  1      -0.022895860096
  2      -0.028449754700
  3      -0.051220900434
  4       0.248018070448
  5       0.083865829044
  6       1.512629550761
  7      -0.790682150404
  8      -0.000000000005
  9      -0.000000000000
 10       0.203175674911
 11       0.000000000008
 12       0.000000000000
 13      -1.093601035967
 14      -0.000000000004
 15      -0.000000000000
 16       0.008006175159
 17       0.000000000000
 18      -0.000000000000
 19      -0.013867102150
 20      -0.000000000000
 21      -0.511044728216
 22      -0.000000000000
 23      -0.000000000000
 24       0.885155434211
 25       0.000000000000
 26      -0.000000000000
 27       0.008049610873
 28      -0.000000000000
 29      -0.000000000000
 30       0.000000000000
 31       0.010392002952
 32       0.000000000000
 33      -0.649993434128
 34      -1.227904457780
 35      -0.313371596148
 36      -1.053878646114
 37      -0.000000000001
 38      -0.000000000000
 Sym=     1a
 Ene= 3.62451632132357E+00
 Spin= Alpha
 Occup= 0.000000
  1       0.000000000000
  2      -0.000000000000
  3       0.000000000001
  4      -0.000000000004
  5      -0.000000000005
  6      -0.000000000002
  7      -0.000000000002
  8       0.268260666159
  9       1.159232042340
 10       0.000000000002
 11      -0.357349615401
 12      -1.544211197347
 13      -0.000000000001
 14       0.141294915129
 15       0.610576255486
 16       0.000000000000
 17      -0.003567718193
 18       0.000000000000
 19      -0.000000000000
 20      -0.000825614221
 21      -0.000000000000
 22       0.111153578913
 23      -0.000000000000
 24       0.000000000000
 25       0.025722316185
 26      -0.002971197390
 27      -0.000000000000
 28      -0.000280700057
 29       0.003835799336
 30       0.000000000000
 31      -0.000000000000
 32      -0.001087146648
 33      -0.000000000000
 34       0.000000000001
 35      -0.000000000000
 36      -0.000000000000
 37       0.041316554584
 38       0.178540800035
 Sym=     1a
 Ene= 3.62451632132463E+00
 Spin= Alpha
 Occup= 0.000000
  1       0.000000000000
  2      -0.000000000000
  3       0.000000000004
  4      -0.000000000017
  5      -0.000000000021
  6      -0.000000000009
  7      -0.000000000008
  8       1.159232042340
  9      -0.268260666159
 10       0.000000000009
 11      -1.544211197347
 12       0.357349615401
 13      -0.000000000003
 14       0.610576255486
 15      -0.141294915129
 16       0.000000000000
 17       0.000825614221
 18      -0.000000000000
 19      -0.000000000000
 20      -0.003567718193
 21      -0.000000000000
 22      -0.025722316185
 23      -0.000000000000
 24       0.000000000001
 25       0.111153578912
 26       0.000687571911
 27      -0.000000000000
 28      -0.001212986255
 29      -0.000887651521
 30       0.000000000000
 31      -0.000000000001
 32      -0.004697875565
 33      -0.000000000002
 34       0.000000000003
 35      -0.000000000000
 36      -0.000000000000
 37       0.178540800033
 38      -0.041316554585
 Sym=     1a
 Ene= 3.80831436223957E+00
 Spin= Alpha
 Occup= 0.000000
  1       0.120930469747
  2       0.086762176870
  3       0.446478843942
  4      -2.770751266780
  5      -3.522965395502
  6      -2.084186445738
  7      -0.507313279305
  8      -0.000000000009
  9       0.000000000000
 10       0.855848984666
 11       0.000000000010
 12      -0.000000000000
 13       0.055835347402
 14      -0.000000000003
 15       0.000000000000
 16       0.000859689007
 17      -0.000000000000
 18      -0.000000000000
 19      -0.001489025039
 20       0.000000000000
 21       0.164898873110
 22       0.000000000000
 23       0.000000000000
 24      -0.285613226337
 25      -0.000000000001
 26       0.000000000000
 27       0.007200823027
 28       0.000000000000
 29       0.000000000000
 30      -0.000000000000
 31       0.009296222554
 32       0.000000000000
 33       0.293109326327
 34       0.304454927441
 35       0.355819912105
 36       0.276228396129
 37      -0.000000000001
 38       0.000000000000
 Sym=     1a
 Ene= 4.94806964804129E+00
 Spin= Alpha
 Occup= 0.000000
  1      -0.060945533729
  2      -0.030698205323
  3      -0.275530167971
  4       2.078484455435
  5       3.556828768302
  6       0.213717320453
  7      -0.792258516108
  8      -0.000000000001
  9      -0.000000000000
 10       2.512460130586
 11      -0.000000000000
 12       0.000000000000
 13      -0.078619699725
 14       0.000000000000
 15      -0.000000000000
 16       0.004817272164
 17       0.000000000000
 18       0.000000000000
 19      -0.008343760141
 20      -0.000000000000
 21       0.575081285766
 22      -0.000000000000
 23      -0.000000000000
 24      -0.996070005429
 25      -0.000000000000
 26      -0.000000000000
 27       0.095675426026
 28      -0.000000000000
 29      -0.000000000000
 30       0.000000000000
 31       0.123516443880
 32      -0.000000000000
 33       1.215173029586
 34       1.533199448761
 35      -0.356126165426
 36       1.677376460310
 37      -0.000000000000
 38      -0.000000000000
 Sym=     1a
 Ene= 7.36847820973582E+00
 Spin= Alpha
 Occup= 0.000000
  1       0.000000000000
  2       0.000000000000
  3       0.000000000000
  4      -0.000000000000
  5      -0.000000000000
  6      -0.000000000000
  7       0.000000000000
  8      -0.000000000000
  9      -0.000000000000
 10      -0.000000000000
 11      -0.000000000000
 12       0.000000000000
 13       0.000000000000
 14      -0.000000000000
 15       0.000000000000
 16      -0.000528943910
 17       0.000000000000
 18      -0.013435022589
 19      -0.000305385909
 20       0.000000000000
 21       0.000600833238
 22      -0.000000000000
 23       0.015260990773
 24       0.000346891232
 25       0.000000000000
 26      -0.000000000001
 27       0.035899416984
 28       0.000000000000
 29      -0.000000000001
 30       0.998865006431
 31      -0.027807568823
 32       0.000000000000
 33      -0.000000000000
 34      -0.000000000000
 35       0.000000000000
 36      -0.000000000000
 37       0.000000000000
 38      -0.000000000000
 Sym=     1a
 Ene= 7.36847820973588E+00
 Spin= Alpha
 Occup= 0.000000
  1       0.000000000000
  2       0.000000000000
  3       0.000000000000
  4      -0.000000000000
  5      -0.000000000000
  6      -0.000000000000
  7       0.000000000000
  8       0.000000000000
  9       0.000000000000
 10      -0.000000000000
 11      -0.000000000000
 12      -0.000000000000
 13       0.000000000000
 14      -0.000000000000
 15      -0.000000000000
 16      -0.011635070863
 17       0.000000000000
 18       0.000610771817
 19      -0.006717511295
 20      -0.000000000000
 21       0.013216405696
 22      -0.000000000000
 23      -0.000693782463
 24       0.007630495387
 25       0.000000000000
 26       0.000000000000
 27       0.789672123841
 28       0.000000000001
 29      -0.000000000001
 30      -0.045409569736
 31      -0.611677396919
 32      -0.000000000000
 33      -0.000000000000
 34      -0.000000000000
 35       0.000000000000
 36      -0.000000000000
 37       0.000000000000
 38       0.000000000000
 Sym=     1a
 Ene= 7.40518441188386E+00
 Spin= Alpha
 Occup= 0.000000
  1      -0.000000000000
  2       0.000000000000
  3      -0.000000000000
  4       0.000000000000
  5       0.000000000000
  6       0.000000000000
  7      -0.000000000000
  8       0.000000000000
  9      -0.000000000000
 10       0.000000000000
 11      -0.000000000000
 12       0.000000000000
 13      -0.000000000000
 14       0.000000000000
 15       0.000000000000
 16       0.000000000000
 17      -0.000000000000
 18      -0.000000000000
 19       0.000000000000
 20       0.000000000000
 21      -0.000000000000
 22       0.000000000000
 23       0.000000000000
 24      -0.000000000000
 25      -0.000000000000
 26       0.354554887249
 27      -0.000000000001
 28       0.865411028293
 29       0.274637034727
 30       0.000000000000
 31       0.000000000001
 32      -0.223448166680
 33      -0.000000000000
 34       0.000000000000
 35      -0.000000000000
 36       0.000000000000
 37      -0.000000000000
 38      -0.000000000000
 Sym=     1a
 Ene= 7.40518441188386E+00
 Spin= Alpha
 Occup= 0.000000
  1      -0.000000000000
  2      -0.000000000000
  3      -0.000000000000
  4       0.000000000000
  5       0.000000000000
  6      -0.000000000000
  7      -0.000000000000
  8      -0.000000000000
  9       0.000000000000
 10       0.000000000000
 11       0.000000000000
 12      -0.000000000000
 13       0.000000000000
 14       0.000000000000
 15      -0.000000000000
 16      -0.000000000000
 17       0.000000000000
 18      -0.000000000000
 19      -0.000000000000
 20      -0.000000000000
 21       0.000000000000
 22       0.000000000000
 23       0.000000000000
 24       0.000000000000
 25       0.000000000000
 26       0.706605145699
 27       0.000000000001
 28      -0.434239279785
 29       0.547333992327
 30       0.000000000001
 31      -0.000000000001
 32       0.112120099925