[Molden Format]
[Title]
 Molden file created by orca_2mkl for BaseName=/data01/Nikolayandreadi/heavy/cations/Am_3+

[Atoms] AU
Am   1  95          0.0415890928         1.5388172189        -3.6027401976 
[GTO]
  1 0
s   9 1.0 
 62843653.3261049986     17689.9938137226
 28565296.9664120004     -6499.4966822043
 12984225.8938229997     10011.1098279634
  5901920.8608290004       268.1321452514
  2682691.3003770001      4597.7001645785
  1219405.1365350001      2040.1098732743
   554275.0620610000      2849.1377853557
   251943.2100280000      2091.1701999455
   114519.6409220000      2140.7191514154
s   1 1.0 
    52054.3822370000      2456.1396994492
s   1 1.0 
    23661.0828350000      1359.6779486971
s   1 1.0 
    10755.0376520000       752.6950216035
s   1 1.0 
     4888.6534780000       416.6794027104
s   1 1.0 
     2222.1152170000       230.6667636277
s   1 1.0 
     1010.0523720000       127.6932709570
s   1 1.0 
      459.1147140000        70.6888637489
s   1 1.0 
      208.6885070000        39.1321753804
s   1 1.0 
       94.8584120000        21.6629191925
s   1 1.0 
       43.1174600000        11.9922305466
s   1 1.0 
       19.5988450000         6.6386985846
s   1 1.0 
        8.9085660000         3.6750727756
s   1 1.0 
        4.0493480000         2.0344588892
s   1 1.0 
        1.8406130000         1.1262426144
s   1 1.0 
        0.8366420000         0.6234689638
s   1 1.0 
        0.3802920000         0.3451421375
s   1 1.0 
        0.1728600000         0.1910649274
s   1 1.0 
        0.0785730000         0.1057706306
s   1 1.0 
        0.0357150000         0.0585528560
s   1 1.0 
        0.0162340000         0.0324137478
p   8 1.0 
   898929.0904960000    146952.9919960352
   374553.7877070000     12442.5504737331
   156064.0782110000     42330.7420411669
    65026.6992550000     20798.1925978207
    27094.4580230000     19960.4353800448
    11289.3575090000     15850.9959832866
     4703.8989620000     14651.0236957151
     1959.9579010000     13090.7471121984
p   1 1.0 
      816.6491250000      6222.7802438241
p   1 1.0 
      340.2704690000      2083.1493738863
p   1 1.0 
      141.7793620000       697.3589194406
p   1 1.0 
       59.0747340000       233.4491550447
p   1 1.0 
       24.6144730000        78.1498709600
p   1 1.0 
       10.2560300000        26.1615933656
p   1 1.0 
        4.2733460000         8.7579035915
p   1 1.0 
        1.7805610000         2.9318122746
p   1 1.0 
        0.7419000000         0.9814581862
p   1 1.0 
        0.3091250000         0.3285547495
p   1 1.0 
        0.1288020000         0.1099875039
p   1 1.0 
        0.0536680000         0.0368200481
d   7 1.0 
    44331.4203980000     64843.3162357617
    17732.5681590000     31602.7270381044
     7093.0272640000     34771.4571863981
     2837.2109050000     31646.3841018500
     1134.8843620000     33447.3115951331
      453.9537450000     30100.7570519384
      181.5814980000     20377.9074888751
d   1 1.0 
       72.6325990000      5151.6975337973
d   1 1.0 
       29.0530400000      1036.4666967504
d   1 1.0 
       11.6212160000       208.5260597195
d   1 1.0 
        4.6484860000        41.9532158346
d   1 1.0 
        1.8593950000         8.4405449381
d   1 1.0 
        0.7437580000         1.6981477392
d   1 1.0 
        0.2975030000         0.3416488358
d   1 1.0 
        0.1190010000         0.0687359046
d   1 1.0 
        0.0476010000         0.0138292369
f   6 1.0 
     4946.8424820000     73594.6252860846
     1902.6317240000     64088.9553591663
      731.7814320000     69700.9550562524
      281.4543970000     68616.7606773400
      108.2516910000     50302.6238411210
       41.6352660000     20807.7454297462
f   1 1.0 
       16.0135640000      2924.8128280079
f   1 1.0 
        6.1590630000       340.7281644870
f   1 1.0 
        2.3688700000        39.6933580891
f   1 1.0 
        0.9111040000         4.6241080567
f   1 1.0 
        0.3504250000         0.5386901243
f   1 1.0 
        0.1347790000         0.0627552547

[5D]
[7F]
[9G]
[MO]
 Sym=     1a
 Ene= -4.60699393402464E+03
 Spin= Alpha
 Occup= 1.000000
  1      -0.092192973274
  2      -0.068715659833
  3      -0.116385554034
  4      -0.181272854858
  5      -0.265108849790
  6      -0.297468041706
  7      -0.186090716286
  8      -0.030326352366
  9      -0.000944632044
 10       0.000680771531
 11      -0.000493205364
 12       0.000360401084
 13      -0.000254537841
 14       0.000171192950
 15      -0.000113204096
 16       0.000074400853
 17      -0.000047976013
 18       0.000029673417
 19      -0.000016766550
 20       0.000007678587
 21      -0.000002068480
 22       0.000000000000
 23       0.000000000000
 24      -0.000000000000
 25      -0.000000000000
 26      -0.000000000000
 27       0.000000000000
 28       0.000000000000
 29       0.000000000000
 30      -0.000000000000
 31      -0.000000000000
 32      -0.000000000001
 33      -0.000000000000
 34       0.000000000000
 35       0.000000000004
 36      -0.000000000000
 37      -0.000000000000
 38      -0.000000000004
 39       0.000000000000
 40       0.000000000000
 41       0.000000000003
 42      -0.000000000000
 43       0.000000000000
 44      -0.000000000002
 45       0.000000000000
 46      -0.000000000000
 47       0.000000000001
 48      -0.000000000000
 49       0.000000000000
 50      -0.000000000001
 51       0.000000000000
 52      -0.000000000000
 53       0.000000000000
 54      -0.000000000000
 55       0.000000000000
 56      -0.000000000000
 57       0.000000000000
 58      -0.000000000000
 59       0.000000000000
 60      -0.000000000000
 61      -0.000000026264
 62      -0.000000033212
 63       0.000000008362
 64       0.000000049301
 65      -0.000000026517
 66       0.000000020982
 67       0.000000026533
 68      -0.000000006680
 69      -0.000000039386
 70       0.000000021184
 71      -0.000000013976
 72      -0.000000017674
 73       0.000000004450
 74       0.000000026235
 75      -0.000000014111
 76       0.000000008068
 77       0.000000010203
 78      -0.000000002569
 79      -0.000000015145
 80       0.000000008146
 81      -0.000000004290
 82      -0.000000005425
 83       0.000000001366
 84       0.000000008053
 85      -0.000000004331
 86       0.000000002445
 87       0.000000003092
 88      -0.000000000778
 89      -0.000000004589
 90       0.000000002468
 91      -0.000000001434
 92      -0.000000001813
 93       0.000000000457
 94       0.000000002691
 95      -0.000000001448
 96       0.000000000743
 97       0.000000000940
 98      -0.000000000237
 99      -0.000000001395
100       0.000000000750
101      -0.000000000356
102      -0.000000000450
103       0.000000000113
104       0.000000000669
105      -0.000000000360
106       0.000000000120
107       0.000000000152
108      -0.000000000038
109      -0.000000000226
110       0.000000000121
111       0.000000000000
112      -0.000000000000
113      -0.000000000000
114      -0.000000000000
115       0.000000000000
116      -0.000000000000
117      -0.000000000001
118       0.000000000000
119      -0.000000000000
120       0.000000000000
121       0.000000000000
122       0.000000000000
123       0.000000000000
124       0.000000000001
125      -0.000000000000
126       0.000000000000
127      -0.000000000000
128      -0.000000000000
129      -0.000000000000
130      -0.000000000000
131      -0.000000000000
132       0.000000000000
133      -0.000000000000
134      -0.000000000000
135      -0.000000000000
136       0.000000000000
137      -0.000000000000
138       0.000000000000
139      -0.000000000000
140       0.000000000000
141       0.000000000000
142       0.000000000000
143      -0.000000000000
144       0.000000000000
145      -0.000000000000
146      -0.000000000000
147      -0.000000000000
148       0.000000000000
149       0.000000000000
150       0.000000000000
151       0.000000000000
152      -0.000000000000
153       0.000000000000
154       0.000000000000
155      -0.000000000000
156      -0.000000000000
157      -0.000000000000
158      -0.000000000000
159       0.000000000000
 Sym=     1a
 Ene= -8.81009266604518E+02
 Spin= Alpha
 Occup= 1.000000
  1       0.039577952402
  2       0.031908694704
  3       0.052654423266
  4       0.090020170518
  5       0.140617469312
  6       0.173782458290
  7       0.056536600213
  8      -0.386573371941
  9      -0.598913764203
 10      -0.155620164117
 11       0.001635087112
 12      -0.001127396599
 13       0.000504690987
 14      -0.000199263422
 15       0.000080333883
 16      -0.000043295013
 17       0.000025757808
 18      -0.000014916184
 19       0.000008230860
 20      -0.000003727540
 21       0.000000999088
 22       0.000000000000
 23      -0.000000000000
 24      -0.000000000000
 25      -0.000000000000
 26      -0.000000000000
 27      -0.000000000000
 28       0.000000000000
 29      -0.000000000002
 30      -0.000000000000
 31      -0.000000000001
 32       0.000000000002
 33      -0.000000000001
 34       0.000000000000
 35      -0.000000000001
 36       0.000000000001
 37      -0.000000000000
 38       0.000000000000
 39      -0.000000000001
 40       0.000000000000
 41      -0.000000000000
 42       0.000000000000
 43       0.000000000000
 44       0.000000000000
 45      -0.000000000000
 46      -0.000000000000
 47      -0.000000000000
 48       0.000000000000
 49       0.000000000000
 50       0.000000000000
 51       0.000000000000
 52      -0.000000000000
 53      -0.000000000000
 54      -0.000000000000
 55       0.000000000000
 56      -0.000000000000
 57       0.000000000000
 58      -0.000000000000
 59       0.000000000000
 60      -0.000000000000
 61      -0.000001837634
 62      -0.000002323548
 63       0.000000584948
 64       0.000003449192
 65      -0.000001855298
 66      -0.000000248751
 67      -0.000000314524
 68       0.000000079184
 69       0.000000466898
 70      -0.000000251140
 71       0.000000175663
 72       0.000000222113
 73      -0.000000055916
 74      -0.000000329716
 75       0.000000177352
 76      -0.000000064151
 77      -0.000000081116
 78       0.000000020420
 79       0.000000120414
 80      -0.000000064770
 81       0.000000019289
 82       0.000000024392
 83      -0.000000006139
 84      -0.000000036209
 85       0.000000019477
 86      -0.000000015363
 87      -0.000000019427
 88       0.000000004889
 89       0.000000028840
 90      -0.000000015513
 91       0.000000010174
 92       0.000000012865
 93      -0.000000003238
 94      -0.000000019099
 95       0.000000010273
 96      -0.000000005013
 97      -0.000000006339
 98       0.000000001596
 99       0.000000009411
100      -0.000000005062
101       0.000000002386
102       0.000000003016
103      -0.000000000759
104      -0.000000004478
105       0.000000002408
106      -0.000000000805
107      -0.000000001017
108       0.000000000256
109       0.000000001510
110      -0.000000000812
111       0.000000000000
112       0.000000000000
113      -0.000000000001
114      -0.000000000001
115       0.000000000003
116      -0.000000000003
117      -0.000000000003
118       0.000000000000
119      -0.000000000000
120       0.000000000001
121       0.000000000001
122      -0.000000000002
123       0.000000000002
124       0.000000000001
125      -0.000000000000
126       0.000000000000
127      -0.000000000000
128      -0.000000000001
129       0.000000000001
130      -0.000000000001
131      -0.000000000001
132       0.000000000000
133      -0.000000000000
134       0.000000000000
135       0.000000000000
136      -0.000000000001
137       0.000000000001
138       0.000000000000
139      -0.000000000000
140       0.000000000000
141      -0.000000000000
142      -0.000000000000
143       0.000000000000
144      -0.000000000000
145      -0.000000000000
146       0.000000000000
147       0.000000000000
148       0.000000000000
149       0.000000000000
150      -0.000000000000
151       0.000000000000
152      -0.000000000000
153      -0.000000000000
154      -0.000000000000
155      -0.000000000000
156      -0.000000000000
157       0.000000000000
158      -0.000000000000
159       0.000000000000
 Sym=     1a
 Ene= -7.31725845450494E+02
 Spin= Alpha
 Occup= 1.000000
  1      -0.000000000000
  2      -0.000000000000
  3      -0.000000000000
  4       0.000000000000
  5      -0.000000000002
  6       0.000000000002
  7      -0.000000000007
  8       0.000000000019
  9      -0.000000000021
 10       0.000000000011
 11      -0.000000000001
 12      -0.000000000001
 13       0.000000000002
 14      -0.000000000002
 15       0.000000000001
 16      -0.000000000000
 17      -0.000000000001
 18       0.000000000001
 19      -0.000000000002
 20       0.000000000002
 21      -0.000000000001
 22      -0.060592377988
 23      -0.161419487299
 24      -0.063192606678
 25      -0.100994077914
 26      -0.269050544282
 27      -0.105328083404
 28      -0.150184038558
 29      -0.400093729761
 30      -0.156628955540
 31      -0.077836552472
 32      -0.207358364377
 33      -0.081176788379
 34      -0.002413962261
 35      -0.006430850928
 36      -0.002517553739
 37      -0.001440933553
 38      -0.003838680100
 39      -0.001502768998
 40       0.000991195393
 41       0.002640567307
 42       0.001033731018
 43      -0.000608711758
 44      -0.001621622111
 45      -0.000634833686
 46       0.000365443590
 47       0.000973550121
 48       0.000381126039
 49      -0.000216341384
 50      -0.000576338420
 51      -0.000225625342
 52       0.000120960425
 53       0.000322241353
 54       0.000126151256
 55      -0.000058474610
 56      -0.000155777705
 57      -0.000060983958
 58       0.000018304989
 59       0.000048764912
 60       0.000019090520
 61       0.000000000003
 62      -0.000000000000
 63       0.000000000002
 64      -0.000000000001
 65       0.000000000003
 66      -0.000000000003
 67       0.000000000001
 68      -0.000000000000
 69       0.000000000000
 70      -0.000000000002
 71       0.000000000002
 72      -0.000000000001
 73      -0.000000000000
 74      -0.000000000000
 75       0.000000000001
 76      -0.000000000002
 77       0.000000000000
 78       0.000000000003
 79       0.000000000000
 80       0.000000000002
 81       0.000000000001
 82      -0.000000000000
 83      -0.000000000002
 84      -0.000000000001
 85      -0.000000000002
 86      -0.000000000001
 87       0.000000000000
 88       0.000000000001
 89       0.000000000001
 90       0.000000000001
 91       0.000000000000
 92      -0.000000000000
 93      -0.000000000001
 94      -0.000000000001
 95      -0.000000000000
 96      -0.000000000000
 97       0.000000000000
 98       0.000000000001
 99       0.000000000001
100       0.000000000000
101       0.000000000000
102      -0.000000000000
103      -0.000000000000
104      -0.000000000000
105      -0.000000000000
106      -0.000000000000
107       0.000000000000
108       0.000000000000
109       0.000000000000
110       0.000000000000
111      -0.000000186416
112      -0.000000434179
113      -0.000000103620
114      -0.000000026858
115      -0.000000710478
116      -0.000000968453
117      -0.000000846418
118       0.000000153332
119       0.000000356970
120       0.000000085152
121       0.000000022063
122       0.000000584337
123       0.000000796507
124       0.000000696047
125      -0.000000094923
126      -0.000000220966
127      -0.000000052703
128      -0.000000013655
129      -0.000000361738
130      -0.000000493082
131      -0.000000430874
132       0.000000044221
133       0.000000102953
134       0.000000024559
135       0.000000006364
136       0.000000168523
137       0.000000229712
138       0.000000200740
139      -0.000000022596
140      -0.000000052604
141      -0.000000012548
142      -0.000000003251
143      -0.000000086112
144      -0.000000117378
145      -0.000000102574
146       0.000000010362
147       0.000000024123
148       0.000000005755
149       0.000000001492
150       0.000000039489
151       0.000000053826
152       0.000000047041
153      -0.000000003598
154      -0.000000008376
155      -0.000000001998
156      -0.000000000518
157      -0.000000013711
158      -0.000000018689
159      -0.000000016333
 Sym=     1a
 Ene= -7.31725845029793E+02
 Spin= Alpha
 Occup= 1.000000
  1      -0.000000000000
  2      -0.000000000000
  3       0.000000000000
  4      -0.000000000000
  5      -0.000000000000
  6       0.000000000000
  7      -0.000000000003
  8       0.000000000009
  9      -0.000000000012
 10       0.000000000009
 11      -0.000000000007
 12       0.000000000004
 13      -0.000000000003
 14       0.000000000001
 15       0.000000000001
 16      -0.000000000003
 17       0.000000000003
 18      -0.000000000005
 19       0.000000000005
 20      -0.000000000003
 21       0.000000000001
 22       0.032461376478
 23      -0.076323424349
 24       0.163835242412
 25       0.054105927089
 26      -0.127214249087
 27       0.273077073197
 28       0.080458644765
 29      -0.189174950453
 30       0.406081411186
 31       0.041699661090
 32      -0.098044546288
 33       0.210461626228
 34       0.001293240822
 35      -0.003040677227
 36       0.006527093020
 37       0.000771956637
 38      -0.001815030052
 39       0.003896128763
 40      -0.000531016744
 41       0.001248530426
 42      -0.002680085269
 43       0.000326107378
 44      -0.000766746038
 45       0.001645890815
 46      -0.000195780434
 47       0.000460320380
 48      -0.000988119987
 49       0.000115901363
 50      -0.000272508126
 51       0.000584963730
 52      -0.000064802573
 53       0.000152364278
 54      -0.000327063922
 55       0.000031326819
 56      -0.000073655841
 57       0.000158109030
 58      -0.000009806600
 59       0.000023057347
 60      -0.000049494714
 61       0.000000000001
 62       0.000000000000
 63       0.000000000000
 64      -0.000000000000
 65       0.000000000002
 66      -0.000000000001
 67      -0.000000000000
 68      -0.000000000001
 69       0.000000000000
 70      -0.000000000002
 71       0.000000000001
 72       0.000000000000
 73       0.000000000001
 74      -0.000000000001
 75       0.000000000002
 76      -0.000000000000
 77      -0.000000000000
 78      -0.000000000002
 79       0.000000000001
 80      -0.000000000003
 81       0.000000000000
 82      -0.000000000000
 83       0.000000000001
 84      -0.000000000000
 85       0.000000000002
 86      -0.000000000000
 87       0.000000000000
 88      -0.000000000001
 89      -0.000000000001
 90      -0.000000000001
 91       0.000000000000
 92      -0.000000000000
 93       0.000000000000
 94       0.000000000001
 95       0.000000000000
 96       0.000000000000
 97       0.000000000000
 98      -0.000000000000
 99      -0.000000000001
100      -0.000000000000
101       0.000000000000
102      -0.000000000000
103       0.000000000000
104       0.000000000001
105       0.000000000000
106      -0.000000000000
107      -0.000000000000
108      -0.000000000000
109      -0.000000000001
110      -0.000000000000
111       0.000000483510
112       0.000000975360
113      -0.000000327680
114      -0.000000831064
115       0.000000167566
116      -0.000000056530
117      -0.000000616236
118      -0.000000397672
119      -0.000000802031
120       0.000000269445
121       0.000000683413
122      -0.000000137677
123       0.000000046431
124       0.000000506721
125       0.000000246183
126       0.000000496476
127      -0.000000166793
128      -0.000000423057
129       0.000000085208
130      -0.000000028733
131      -0.000000313670
132      -0.000000114689
133      -0.000000231308
134       0.000000077709
135       0.000000197100
136      -0.000000039709
137       0.000000013392
138       0.000000146139
139       0.000000058603
140       0.000000118190
141      -0.000000039707
142      -0.000000100712
143       0.000000020288
144      -0.000000006842
145      -0.000000074673
146      -0.000000026874
147      -0.000000054199
148       0.000000018208
149       0.000000046183
150      -0.000000009304
151       0.000000003137
152       0.000000034244
153       0.000000009331
154       0.000000018819
155      -0.000000006322
156      -0.000000016036
157       0.000000003230
158      -0.000000001089
159      -0.000000011891
 Sym=     1a
 Ene= -7.31721704606045E+02
 Spin= Alpha
 Occup= 1.000000
  1      -0.000000000000
  2      -0.000000000000
  3      -0.000000000000
  4       0.000000000000
  5      -0.000000000001
  6       0.000000000001
  7      -0.000000000002
  8       0.000000000005
  9      -0.000000000007
 10       0.000000000005
 11      -0.000000000002
 12       0.000000000002
 13      -0.000000000002
 14       0.000000000004
 15      -0.000000000005
 16       0.000000000005
 17      -0.000000000005
 18       0.000000000007
 19      -0.000000000006
 20       0.000000000003
 21      -0.000000000000
 22       0.170282453723
 23      -0.042889341951
 24      -0.053718993265
 25       0.283823390707
 26      -0.071487098004
 27      -0.089537744379
 28       0.422061115009
 29      -0.106305277437
 30      -0.133147589189
 31       0.218737546841
 32      -0.055093811716
 33      -0.069005117958
 34       0.006783321695
 35      -0.001708527198
 36      -0.002139934001
 37       0.004050803534
 38      -0.001020283032
 39      -0.001277906698
 40      -0.002785825020
 41       0.000701670662
 42       0.000878844019
 43       0.001710604649
 44      -0.000430853011
 45      -0.000539644326
 46      -0.001027108298
 47       0.000258699579
 48       0.000324021781
 49       0.000608042102
 50      -0.000153148637
 51      -0.000191818998
 52      -0.000339966954
 53       0.000085628077
 54       0.000107249351
 55       0.000164347393
 56      -0.000041394468
 57      -0.000051846662
 58      -0.000051447700
 59       0.000012958223
 60       0.000016230203
 61       0.000000000001
 62      -0.000000000000
 63       0.000000000001
 64      -0.000000000000
 65       0.000000000000
 66      -0.000000000001
 67      -0.000000000002
 68      -0.000000000002
 69       0.000000000000
 70      -0.000000000002
 71       0.000000000000
 72       0.000000000002
 73       0.000000000002
 74      -0.000000000000
 75       0.000000000002
 76       0.000000000000
 77      -0.000000000001
 78      -0.000000000004
 79      -0.000000000000
 80      -0.000000000004
 81      -0.000000000001
 82       0.000000000001
 83       0.000000000004
 84       0.000000000001
 85       0.000000000004
 86       0.000000000000
 87      -0.000000000001
 88      -0.000000000003
 89      -0.000000000001
 90      -0.000000000002
 91      -0.000000000000
 92       0.000000000000
 93       0.000000000002
 94       0.000000000002
 95       0.000000000001
 96       0.000000000000
 97      -0.000000000000
 98      -0.000000000001
 99      -0.000000000001
100      -0.000000000000
101      -0.000000000000
102       0.000000000000
103       0.000000000000
104      -0.000000000000
105       0.000000000000
106       0.000000000000
107      -0.000000000000
108      -0.000000000000
109       0.000000000001
110      -0.000000000000
111      -0.000000968217
112       0.000000836171
113      -0.000000210606
114       0.000001174417
115      -0.000000631481
116       0.000001313789
117      -0.000001200237
118       0.000000605811
119      -0.000000523136
120       0.000000131792
121      -0.000000734705
122       0.000000395100
123      -0.000000821962
124       0.000000750884
125      -0.000000345176
126       0.000000298059
127      -0.000000075095
128       0.000000418593
129      -0.000000225115
130       0.000000468319
131      -0.000000427814
132       0.000000178536
133      -0.000000154173
134       0.000000038839
135      -0.000000216527
136       0.000000116439
137      -0.000000242239
138       0.000000221293
139      -0.000000087652
140       0.000000075690
141      -0.000000019068
142       0.000000106301
143      -0.000000057165
144       0.000000118925
145      -0.000000108641
146       0.000000040450
147      -0.000000034930
148       0.000000008800
149      -0.000000049057
150       0.000000026381
151      -0.000000054882
152       0.000000050138
153      -0.000000014039
154       0.000000012123
155      -0.000000003054
156       0.000000017026
157      -0.000000009156
158       0.000000019048
159      -0.000000017401
 Sym=     1a
 Ene= -2.28886823632950E+02
 Spin= Alpha
 Occup= 1.000000
  1       0.019455460034
  2       0.015925873895
  3       0.026039772160
  4       0.045712357886
  5       0.071237989504
  6       0.092220937087
  7       0.015736996505
  8      -0.314050585196
  9      -0.683150699230
 10       0.254855160066
 11       0.970401554212
 12       0.116969809718
 13       0.021970899787
 14      -0.016724922015
 15       0.011681048619
 16      -0.007954830204
 17       0.005219132027
 18      -0.003253733886
 19       0.001846160918
 20      -0.000847174031
 21       0.000228426339
 22      -0.000000000000
 23      -0.000000000000
 24       0.000000000001
 25      -0.000000000001
 26      -0.000000000001
 27       0.000000000002
 28      -0.000000000001
 29      -0.000000000001
 30       0.000000000003
 31      -0.000000000001
 32       0.000000000001
 33      -0.000000000002
 34       0.000000000005
 35       0.000000000009
 36      -0.000000000005
 37       0.000000000001
 38      -0.000000000012
 39      -0.000000000002
 40       0.000000000002
 41       0.000000000007
 42       0.000000000002
 43      -0.000000000002
 44      -0.000000000005
 45      -0.000000000003
 46       0.000000000002
 47       0.000000000003
 48       0.000000000002
 49      -0.000000000002
 50      -0.000000000002
 51      -0.000000000002
 52       0.000000000002
 53       0.000000000001
 54       0.000000000001
 55      -0.000000000003
 56       0.000000000000
 57      -0.000000000001
 58       0.000000000005
 59      -0.000000000001
 60       0.000000000002
 61       0.000011924645
 62       0.000015077777
 63      -0.000003795833
 64      -0.000022382229
 65       0.000012039246
 66       0.000026617623
 67       0.000033655904
 68      -0.000008472861
 69      -0.000049960560
 70       0.000026873433
 71       0.000009853595
 72       0.000012459117
 73      -0.000003136516
 74      -0.000018494947
 75       0.000009948321
 76      -0.000000054680
 77      -0.000000069157
 78       0.000000017382
 79       0.000000102670
 80      -0.000000055235
 81       0.000000759388
 82       0.000000960207
 83      -0.000000241711
 84      -0.000001425393
 85       0.000000766717
 86      -0.000000184388
 87      -0.000000233168
 88       0.000000058680
 89       0.000000346132
 90      -0.000000186191
 91       0.000000158677
 92       0.000000200649
 93      -0.000000050505
 94      -0.000000297856
 95       0.000000160220
 96      -0.000000074065
 97      -0.000000093649
 98       0.000000023580
 99       0.000000139009
100      -0.000000074776
101       0.000000035116
102       0.000000044393
103      -0.000000011189
104      -0.000000065889
105       0.000000035442
106      -0.000000011807
107      -0.000000014924
108       0.000000003764
109       0.000000022148
110      -0.000000011914
111      -0.000000000001
112      -0.000000000003
113      -0.000000000002
114      -0.000000000002
115       0.000000000006
116      -0.000000000004
117      -0.000000000011
118       0.000000000001
119       0.000000000002
120       0.000000000001
121       0.000000000002
122      -0.000000000003
123       0.000000000003
124       0.000000000004
125      -0.000000000000
126      -0.000000000001
127      -0.000000000001
128      -0.000000000001
129       0.000000000002
130      -0.000000000002
131      -0.000000000003
132       0.000000000000
133       0.000000000000
134      -0.000000000000
135      -0.000000000000
136      -0.000000000001
137       0.000000000000
138       0.000000000002
139       0.000000000001
140       0.000000000001
141       0.000000000001
142       0.000000000001
143      -0.000000000000
144       0.000000000000
145      -0.000000000001
146      -0.000000000006
147      -0.000000000005
148      -0.000000000003
149      -0.000000000004
150      -0.000000000001
151       0.000000000000
152       0.000000000001
153       0.000000000003
154       0.000000000003
155       0.000000000003
156       0.000000000003
157       0.000000000000
158      -0.000000000000
159      -0.000000000003
 Sym=     1a
 Ene= -1.87012335763874E+02
 Spin= Alpha
 Occup= 1.000000
  1       0.000000000000
  2       0.000000000000
  3       0.000000000000
  4       0.000000000000
  5       0.000000000002
  6      -0.000000000002
  7       0.000000000010
  8      -0.000000000033
  9       0.000000000042
 10      -0.000000000030
 11       0.000000000027
 12      -0.000000000023
 13       0.000000000014
 14      -0.000000000013
 15       0.000000000017
 16      -0.000000000026
 17       0.000000000032
 18      -0.000000000038
 19       0.000000000043
 20      -0.000000000041
 21       0.000000000024
 22      -0.034055041857
 23      -0.090875710290
 24      -0.035394895154
 25      -0.060941646101
 26      -0.162622480364
 27      -0.063339319428
 28      -0.091548731952
 29      -0.244297337161
 30      -0.095150603030
 31       0.044223413768
 32       0.118009960311
 33       0.045963329013
 34       0.244921473892
 35       0.653571738354
 36       0.254557604882
 37       0.080500931208
 38       0.214816335596
 39       0.083668140338
 40      -0.002406630625
 41      -0.006422081869
 42      -0.002501316521
 43       0.001752937298
 44       0.004677704480
 45       0.001821904436
 46      -0.000992197276
 47      -0.002647673504
 48      -0.001031234048
 49       0.000552183712
 50       0.001473499495
 51       0.000573908701
 52      -0.000303982785
 53      -0.000811176560
 54      -0.000315942620
 55       0.000146236556
 56       0.000390231537
 57       0.000151990060
 58      -0.000045705730
 59      -0.000121965519
 60      -0.000047503968
 61       0.000000000010
 62      -0.000000000000
 63      -0.000000000011
 64       0.000000000001