[Molden Format]
[Title]
 Molden file created by orca_2mkl for BaseName=/home/nikolayandreadi/CCact/AmF3

[Atoms] AU
Am   1  95         -1.1316398186        -2.1744700678         1.1001248558 
F    2   9         -4.6637798478        -3.1294790744        -0.3698760962 
F    3   9         -0.1903256573         1.3633996111        -0.3652179213 
F    4   9          1.4628332208        -4.7573458579        -0.3650308384 
[GTO]
  1 0
s   9 1.0 
 62843653.3261049986     17689.9938137226
 28565296.9664120004     -6499.4966822043
 12984225.8938229997     10011.1098279634
  5901920.8608290004       268.1321452514
  2682691.3003770001      4597.7001645785
  1219405.1365350001      2040.1098732743
   554275.0620610000      2849.1377853557
   251943.2100280000      2091.1701999455
   114519.6409220000      2140.7191514154
s   1 1.0 
    52054.3822370000      2456.1396994492
s   1 1.0 
    23661.0828350000      1359.6779486971
s   1 1.0 
    10755.0376520000       752.6950216035
s   1 1.0 
     4888.6534780000       416.6794027104
s   1 1.0 
     2222.1152170000       230.6667636277
s   1 1.0 
     1010.0523720000       127.6932709570
s   1 1.0 
      459.1147140000        70.6888637489
s   1 1.0 
      208.6885070000        39.1321753804
s   1 1.0 
       94.8584120000        21.6629191925
s   1 1.0 
       43.1174600000        11.9922305466
s   1 1.0 
       19.5988450000         6.6386985846
s   1 1.0 
        8.9085660000         3.6750727756
s   1 1.0 
        4.0493480000         2.0344588892
s   1 1.0 
        1.8406130000         1.1262426144
s   1 1.0 
        0.8366420000         0.6234689638
s   1 1.0 
        0.3802920000         0.3451421375
s   1 1.0 
        0.1728600000         0.1910649274
s   1 1.0 
        0.0785730000         0.1057706306
s   1 1.0 
        0.0357150000         0.0585528560
s   1 1.0 
        0.0162340000         0.0324137478
p   8 1.0 
   898929.0904960000    146952.9919960352
   374553.7877070000     12442.5504737331
   156064.0782110000     42330.7420411669
    65026.6992550000     20798.1925978207
    27094.4580230000     19960.4353800448
    11289.3575090000     15850.9959832866
     4703.8989620000     14651.0236957151
     1959.9579010000     13090.7471121984
p   1 1.0 
      816.6491250000      6222.7802438241
p   1 1.0 
      340.2704690000      2083.1493738863
p   1 1.0 
      141.7793620000       697.3589194406
p   1 1.0 
       59.0747340000       233.4491550447
p   1 1.0 
       24.6144730000        78.1498709600
p   1 1.0 
       10.2560300000        26.1615933656
p   1 1.0 
        4.2733460000         8.7579035915
p   1 1.0 
        1.7805610000         2.9318122746
p   1 1.0 
        0.7419000000         0.9814581862
p   1 1.0 
        0.3091250000         0.3285547495
p   1 1.0 
        0.1288020000         0.1099875039
p   1 1.0 
        0.0536680000         0.0368200481
d   7 1.0 
    44331.4203980000     64843.3162357617
    17732.5681590000     31602.7270381044
     7093.0272640000     34771.4571863981
     2837.2109050000     31646.3841018500
     1134.8843620000     33447.3115951331
      453.9537450000     30100.7570519384
      181.5814980000     20377.9074888751
d   1 1.0 
       72.6325990000      5151.6975337973
d   1 1.0 
       29.0530400000      1036.4666967504
d   1 1.0 
       11.6212160000       208.5260597195
d   1 1.0 
        4.6484860000        41.9532158346
d   1 1.0 
        1.8593950000         8.4405449381
d   1 1.0 
        0.7437580000         1.6981477392
d   1 1.0 
        0.2975030000         0.3416488358
d   1 1.0 
        0.1190010000         0.0687359046
d   1 1.0 
        0.0476010000         0.0138292369
f   6 1.0 
     4946.8424820000     73594.6252860846
     1902.6317240000     64088.9553591663
      731.7814320000     69700.9550562524
      281.4543970000     68616.7606773400
      108.2516910000     50302.6238411210
       41.6352660000     20807.7454297462
f   1 1.0 
       16.0135640000      2924.8128280079
f   1 1.0 
        6.1590630000       340.7281644870
f   1 1.0 
        2.3688700000        39.6933580891
f   1 1.0 
        0.9111040000         4.6241080567
f   1 1.0 
        0.3504250000         0.5386901243
f   1 1.0 
        0.1347790000         0.0627552547

  2 0
s   6 1.0 
    35479.1004410000         1.9229128581
     5318.4728983000         2.2734773358
     1210.4810975000         3.4747482552
      342.8551814000         5.2879612972
      112.0194318100         7.1666332516
       40.7147402500         7.7556346254
s   1 1.0 
       16.0396781100         5.7122450312
s   1 1.0 
        6.5038186700         2.9025947842
s   1 1.0 
        1.5440477500         0.9872011154
s   1 1.0 
        0.6122345300        -0.4932856223
s   1 1.0 
        0.2402798000         0.2445952611
p   4 1.0 
       80.2339004800         4.2755032106
       18.5940107400         4.7314752302
        5.6867902700         4.0864798013
        1.9511006300         2.2989954518
p   1 1.0 
        0.6697021100         0.8635593126
p   1 1.0 
        0.2165130000         0.2105208234
d   1 1.0 
        3.1070000000        20.7284714039
d   1 1.0 
        0.8550000000         2.1672588463
f   1 1.0 
        1.9170000000        24.6547062912

  3 0
s   6 1.0 
    35479.1004410000         1.9229128581
     5318.4728983000         2.2734773358
     1210.4810975000         3.4747482552
      342.8551814000         5.2879612972
      112.0194318100         7.1666332516
       40.7147402500         7.7556346254
s   1 1.0 
       16.0396781100         5.7122450312
s   1 1.0 
        6.5038186700         2.9025947842
s   1 1.0 
        1.5440477500         0.9872011154
s   1 1.0 
        0.6122345300        -0.4932856223
s   1 1.0 
        0.2402798000         0.2445952611
p   4 1.0 
       80.2339004800         4.2755032106
       18.5940107400         4.7314752302
        5.6867902700         4.0864798013
        1.9511006300         2.2989954518
p   1 1.0 
        0.6697021100         0.8635593126
p   1 1.0 
        0.2165130000         0.2105208234
d   1 1.0 
        3.1070000000        20.7284714039
d   1 1.0 
        0.8550000000         2.1672588463
f   1 1.0 
        1.9170000000        24.6547062912

  4 0
s   6 1.0 
    35479.1004410000         1.9229128581
     5318.4728983000         2.2734773358
     1210.4810975000         3.4747482552
      342.8551814000         5.2879612972
      112.0194318100         7.1666332516
       40.7147402500         7.7556346254
s   1 1.0 
       16.0396781100         5.7122450312
s   1 1.0 
        6.5038186700         2.9025947842
s   1 1.0 
        1.5440477500         0.9872011154
s   1 1.0 
        0.6122345300        -0.4932856223
s   1 1.0 
        0.2402798000         0.2445952611
p   4 1.0 
       80.2339004800         4.2755032106
       18.5940107400         4.7314752302
        5.6867902700         4.0864798013
        1.9511006300         2.2989954518
p   1 1.0 
        0.6697021100         0.8635593126
p   1 1.0 
        0.2165130000         0.2105208234
d   1 1.0 
        3.1070000000        20.7284714039
d   1 1.0 
        0.8550000000         2.1672588463
f   1 1.0 
        1.9170000000        24.6547062912

[5D]
[9G]
[MO]
 Sym=     1a
 Ene= -4.60613185449921E+03
 Spin= Alpha
 Occup= 1.000000
  1      -0.092192966571
  2      -0.068715653517
  3      -0.116385546121
  4      -0.181272839200
  5      -0.265108841882
  6      -0.297468005947
  7      -0.186090764412
  8      -0.030326370556
  9      -0.000944717822
 10       0.000680894176
 11      -0.000493402712
 12       0.000360712162
 13      -0.000255015875
 14       0.000171917394
 15      -0.000114282380
 16       0.000075935142
 17      -0.000049835883
 18       0.000030717950
 19      -0.000015999334
 20       0.000007118096
 21      -0.000001921905
 22       0.000000000139
 23      -0.000000000025
 24      -0.000000160419
 25      -0.000000000023
 26      -0.000000000001
 27       0.000000029200
 28      -0.000000000003
 29       0.000000000008
 30      -0.000000001713
 31      -0.000000000006
 32      -0.000000000004
 33       0.000000006031
 34       0.000000000007
 35       0.000000000008
 36      -0.000000006857
 37      -0.000000000009
 38      -0.000000000009
 39       0.000000001186
 40       0.000000000014
 41       0.000000000018
 42      -0.000000003888
 43      -0.000000000016
 44      -0.000000000032
 45      -0.000000000599
 46       0.000000000016
 47       0.000000000052
 48       0.000000016539
 49       0.000000000007
 50      -0.000000000077
 51      -0.000000066100
 52      -0.000000000141
 53       0.000000000071
 54       0.000000248746
 55       0.000000000388
 56      -0.000000000037
 57      -0.000000584136
 58      -0.000000000153
 59       0.000000000018
 60       0.000000197964
 61       0.000000057070
 62       0.000000000105
 63      -0.000000000236
 64       0.000000000003
 65      -0.000000000040
 66      -0.000000058668
 67      -0.000000000065
 68       0.000000000194
 69      -0.000000000006
 70       0.000000000027
 71       0.000000043090
 72       0.000000000038
 73      -0.000000000131
 74       0.000000000009
 75      -0.000000000027
 76      -0.000000039289
 77      -0.000000000001
 78       0.000000000081
 79      -0.000000000013
 80       0.000000000019
 81       0.000000045719
 82      -0.000000000034
 83      -0.000000000051
 84       0.000000000021
 85      -0.000000000018
 86      -0.000000066013
 87       0.000000000075
 88       0.000000000041
 89      -0.000000000038
 90       0.000000000027
 91       0.000000098426
 92      -0.000000000124
 93      -0.000000000036
 94       0.000000000069
 95      -0.000000000041
 96      -0.000000083248
 97       0.000000000100
 98       0.000000000013
 99      -0.000000000082
100       0.000000000042
101      -0.000000230087
102       0.000000000383
103       0.000000000120
104      -0.000000000028
105       0.000000000086
106       0.000000094979
107      -0.000000000151
108      -0.000000000059
109       0.000000000022
110      -0.000000000027
111      -0.000000004888
112       0.000000000011
113       0.000000000001
114       0.000000000005
115       0.000000000006
116      -0.000000004816
117      -0.000000004877
118       0.000000015904
119      -0.000000000033
120      -0.000000000007
121      -0.000000000017
122      -0.000000000017
123       0.000000016365
124       0.000000016571
125      -0.000000031589
126       0.000000000066
127       0.000000000015
128       0.000000000033
129       0.000000000033
130      -0.000000032798
131      -0.000000033212
132       0.000000058725
133      -0.000000000122
134      -0.000000000028
135      -0.000000000060
136      -0.000000000061
137       0.000000061181
138       0.000000061952
139      -0.000000109243
140       0.000000000227
141       0.000000000054
142       0.000000000108
143       0.000000000115
144      -0.000000113751
145      -0.000000115184
146       0.000000164395
147      -0.000000000342
148      -0.000000000083
149      -0.000000000152
150      -0.000000000173
151       0.000000168930
152       0.000000171058
153       0.000000060705
154      -0.000000000122
155      -0.000000000024
156      -0.000000000110
157      -0.000000000091
158       0.000000083097
159       0.000000084144
160       0.000000008617
161      -0.000000036752
162       0.000000059577
163      -0.000000045302
164       0.000000053817
165      -0.000000237967
166      -0.000000013678
167      -0.000000003699
168      -0.000000005517
169      -0.000000156068
170      -0.000000042196
171      -0.000000061202
172      -0.000000180799
173      -0.000000048887
174      -0.000000108169
175       0.000000018921
176      -0.000000028303
177      -0.000000007649
178      -0.000000036421
179      -0.000000021250
180      -0.000000026450
181       0.000000027672
182       0.000000007474
183       0.000000044037
184       0.000000025695
185      -0.000000040043
186      -0.000000017535
187      -0.000000004742
188       0.000000048478
189       0.000000028280
190      -0.000000041888
191      -0.000000042460
192       0.000000008610
193      -0.000000036723
194       0.000000059525
195      -0.000000045187
196       0.000000053923
197      -0.000000237888
198       0.000000003635
199       0.000000013662
200      -0.000000005484
201       0.000000041613
202       0.000000156405
203      -0.000000061031
204       0.000000048197
205       0.000000181070
206      -0.000000107905
207       0.000000018977
208       0.000000007507
209       0.000000028223
210       0.000000036605
211      -0.000000020959
212      -0.000000026483
213      -0.000000007317
214      -0.000000027523
215      -0.000000044209
216       0.000000025307
217      -0.000000039972
218       0.000000004732
219       0.000000017779
220      -0.000000048572
221       0.000000027815
222      -0.000000041997
223      -0.000000042445
224       0.000000008614
225      -0.000000036742
226       0.000000059559
227      -0.000000045259
228       0.000000053885
229      -0.000000237831
230       0.000000010040
231      -0.000000009997
232      -0.000000005496
233       0.000000114645
234      -0.000000114133
235      -0.000000060994
236       0.000000132811
237      -0.000000132194
238      -0.000000107905
239       0.000000018986
240       0.000000020705
241      -0.000000020611
242      -0.000000000184
243       0.000000042201
244      -0.000000026507
245      -0.000000020214
246       0.000000020121
247       0.000000000216
248      -0.000000051005
249      -0.000000039980
250       0.000000013048
251      -0.000000012989
252       0.000000000252
253      -0.000000055983
254      -0.000000041952
255      -0.000000042517
 Sym=     1a
 Ene= -8.80149904944555E+02
 Spin= Alpha
 Occup= 1.000000
  1      -0.039577900503
  2      -0.031908652587
  3      -0.052654346438
  4      -0.090020062806
  5      -0.140617236843
  6      -0.173782308022
  7      -0.056536383808
  8       0.386571441828
  9       0.598912844618
 10       0.155623448903
 11      -0.001635960184
 12       0.001127763516
 13      -0.000505153282
 14       0.000199810166
 15      -0.000080958311
 16       0.000044054340
 17      -0.000026567351
 18       0.000015272624
 19      -0.000007772879
 20       0.000003425489
 21      -0.000000920186
 22       0.000000000204
 23      -0.000000000678
 24       0.000000493470
 25       0.000000000075
 26      -0.000000001062
 27       0.000001098049
 28       0.000000000190
 29      -0.000000001350
 30       0.000001328676
 31      -0.000000000039
 32      -0.000000002246
 33       0.000002492211
 34      -0.000000000011
 35      -0.000000000760
 36       0.000000794689
 37       0.000000000053
 38       0.000000000167
 39      -0.000000241222
 40       0.000000000038
 41      -0.000000000105
 42       0.000000070353
 43      -0.000000000038
 44       0.000000000057
 45      -0.000000039069
 46      -0.000000000003
 47      -0.000000000025
 48       0.000000082247
 49       0.000000000007
 50       0.000000000006
 51      -0.000000092652
 52      -0.000000000051
 53       0.000000000003
 54       0.000000146364
 55       0.000000000154
 56       0.000000000010
 57      -0.000000291889
 58      -0.000000000063
 59       0.000000000001
 60       0.000000094121
 61      -0.000004745098
 62      -0.000000006255
 63       0.000000016958
 64      -0.000000000244
 65       0.000000002532
 66      -0.000000809741
 67      -0.000000000666
 68       0.000000002377
 69      -0.000000000027
 70       0.000000000108
 71       0.000000498539
 72       0.000000000572
 73      -0.000000001659
 74       0.000000000062
 75      -0.000000000242
 76      -0.000000213960
 77      -0.000000000175
 78       0.000000000623
 79      -0.000000000024
 80       0.000000000042
 81       0.000000086599
 82       0.000000000032
 83      -0.000000000201
 84       0.000000000006
 85       0.000000000026
 86      -0.000000053029
 87      -0.000000000048
 88       0.000000000154
 89      -0.000000000017
 90       0.000000000017
 91       0.000000064009
 92      -0.000000000007
 93      -0.000000000106
 94       0.000000000030
 95      -0.000000000014
 96      -0.000000033207
 97      -0.000000000001
 98       0.000000000041
 99      -0.000000000035
100       0.000000000019
101      -0.000000114321
102       0.000000000216
103       0.000000000038
104      -0.000000000010
105       0.000000000047
106       0.000000044592
107      -0.000000000079
108      -0.000000000022
109       0.000000000010
110      -0.000000000017
111      -0.000000072623
112       0.000000000003
113       0.000000000233
114       0.000000000155
115      -0.000000000081
116      -0.000000100385
117      -0.000000101672
118       0.000000102727
119      -0.000000000134
120      -0.000000000151
121      -0.000000000151
122      -0.000000000028
123       0.000000116491
124       0.000000117972
125      -0.000000093303
126       0.000000000150
127       0.000000000100
128       0.000000000123
129       0.000000000054
130      -0.000000101102
131      -0.000000102383
132       0.000000053583
133      -0.000000000087
134      -0.000000000057
135      -0.000000000069
136      -0.000000000031
137       0.000000058775
138       0.000000059519
139      -0.000000046822
140       0.000000000086
141       0.000000000038
142       0.000000000050
143       0.000000000037
144      -0.000000050141
145      -0.000000050774
146       0.000000065845
147      -0.000000000131
148      -0.000000000042
149      -0.000000000060
150      -0.000000000063
151       0.000000067928
152       0.000000068785
153       0.000000036625
154      -0.000000000076
155      -0.000000000012
156      -0.000000000063
157      -0.000000000055
158       0.000000047679
159       0.000000048279
160       0.000000004540
161      -0.000000022917
162       0.000000037591
163      -0.000000043186
164       0.000000002265
165      -0.000000115963
166      -0.000000011357
167      -0.000000003071
168      -0.000000004472
169      -0.000000054722
170      -0.000000014793
171      -0.000000020311
172      -0.000000083553
173      -0.000000022598
174      -0.000000050947
175       0.000000010660
176      -0.000000017122
177      -0.000000004628
178      -0.000000021182
179      -0.000000012358
180      -0.000000018657
181       0.000000026315
182       0.000000007111
183       0.000000034887
184       0.000000020355
185      -0.000000022020
186      -0.000000009357
187      -0.000000002531
188       0.000000026798
189       0.000000015633
190      -0.000000022948
191      -0.000000023262
192       0.000000004538
193      -0.000000022904
194       0.000000037566
195      -0.000000043126
196       0.000000002328
197      -0.000000115908
198       0.000000003022
199       0.000000011356
200      -0.000000004450
201       0.000000014592
202       0.000000054854
203      -0.000000020258
204       0.000000022276
205       0.000000083672
206      -0.000000050821
207       0.000000010695
208       0.000000004543
209       0.000000017079
210       0.000000021292
211      -0.000000012192
212      -0.000000018703
213      -0.000000006975
214      -0.000000026225
215      -0.000000035049
216       0.000000020067
217      -0.000000021983
218       0.000000002526
219       0.000000009491
220      -0.000000026852
221       0.000000015377
222      -0.000000023010
223      -0.000000023255
224       0.000000004539
225      -0.000000022912
226       0.000000037579
227      -0.000000043151
228       0.000000002327
229      -0.000000115857
230       0.000000008335
231      -0.000000008299
232      -0.000000004455
233       0.000000040210
234      -0.000000040031
235      -0.000000020243
236       0.000000061359
237      -0.000000061075
238      -0.000000050818
239       0.000000010699
240       0.000000012529
241      -0.000000012472
242      -0.000000000108
243       0.000000024544
244      -0.000000018713
245      -0.000000019247
246       0.000000019160
247       0.000000000176
248      -0.000000040415
249      -0.000000021987
250       0.000000006965
251      -0.000000006933
252       0.000000000139
253      -0.000000030948
254      -0.000000022984
255      -0.000000023293
 Sym=     1a
 Ene= -7.30866155199185E+02
 Spin= Alpha
 Occup= 1.000000
  1       0.000000000088
  2       0.000000000071
  3       0.000000000119
  4       0.000000000198
  5       0.000000000333
  6       0.000000000343
  7       0.000000000189
  8      -0.000000001360
  9      -0.000000001628
 10       0.000000000854
 11       0.000000001047
 12      -0.000000001937
 13       0.000000002259
 14      -0.000000002466
 15       0.000000000757
 16       0.000000008571
 17      -0.000000028108
 18       0.000000043970
 19      -0.000000044485
 20       0.000000016951
 21      -0.000000004162
 22       0.121877378454
 23       0.137355992584
 24       0.000189766956
 25       0.203142762051
 26       0.228942204640
 27       0.000316299687
 28       0.302084549067
 29       0.340449750340
 30       0.000470355458
 31       0.156566178104
 32       0.176450322928
 33       0.000243778269
 34       0.004853094466
 35       0.005469444778
 36       0.000007557052
 37       0.002903216936
 38       0.003271930143
 39       0.000004519119
 40      -0.002002971357
 41      -0.002257352110
 42      -0.000003116388
 43       0.001240431188
 44       0.001397968317
 45       0.000001927452
 46      -0.000761773857
 47      -0.000858520830
 48      -0.000001179580
 49       0.000476516699
 50       0.000537035065
 51       0.000000731695
 52      -0.000299240637
 53      -0.000337243509
 54      -0.000000449250
 55       0.000190051953
 56       0.000214188008
 57       0.000000268996
 58      -0.000036087502
 59      -0.000040673633
 60      -0.000000056209
 61       0.000000001163
 62       0.000000398143
 63       0.000000449101
 64      -0.000000389552
 65       0.000000020531
 66       0.000000002461
 67       0.000001225666
 68       0.000001379898
 69       0.000001257742
 70      -0.000000068389
 71      -0.000000001354
 72      -0.000000865240
 73      -0.000000972969
 74      -0.000001928705
 75       0.000000103874
 76       0.000000002760
 77       0.000001724495
 78       0.000001939821
 79       0.000003249521
 80      -0.000000175205
 81      -0.000000005059
 82      -0.000003183056
 83      -0.000003580595
 84      -0.000005881669
 85       0.000000317124
 86       0.000000009292
 87       0.000005965619
 88       0.000006710260
 89       0.000011318243
 90      -0.000000610004
 91      -0.000000017901
 92      -0.000011667911
 93      -0.000013123878
 94      -0.000022175282
 95       0.000001194791
 96       0.000000028460
 97       0.000018365730
 98       0.000020655459
 99       0.000035864451
100      -0.000001931154
101      -0.000000064844
102      -0.000037410152
103      -0.000042069934
104      -0.000076226955
105       0.000004103059
106       0.000000009075
107       0.000005396687
108       0.000006072095
109       0.000009314629
110      -0.000000503101
111      -0.000000003903
112      -0.000001018196
113      -0.000001147901
114       0.000000223667
115      -0.000000010175
116       0.000000000509
117      -0.000000000021
118       0.000000003658
119       0.000000933220
120       0.000001053335
121      -0.000000848967
122       0.000000043666
123      -0.000000001331
124       0.000000000645
125      -0.000000003358
126      -0.000000825164
127      -0.000000933666
128       0.000001956664
129      -0.000000102797
130       0.000000002223
131      -0.000000000948
132       0.000000004160
133       0.000000972893
134       0.000001104368
135      -0.000004176892
136       0.000000220667
137      -0.000000004089
138       0.000000001549
139      -0.000000007962
140      -0.000001775002
141      -0.000002018049
142       0.000009324775
143      -0.000000493161
144       0.000000008676
145      -0.000000003511
146       0.000000014009
147       0.000002922704
148       0.000003326581
149      -0.000017459436
150       0.000000923689
151      -0.000000015438
152       0.000000006840
153      -0.000000014830
154      -0.000004049023
155      -0.000004628272
156       0.000035194692
157      -0.000001865867
158       0.000000037256
159      -0.000000004619
160      -0.000001520418
161       0.000007129714
162      -0.000013307617
163       0.000033148931
164       0.000056764820
165       0.000096281989
166       0.000006279596
167       0.000001858651
168       0.000002645958
169      -0.000019193384
170      -0.000006379340
171      -0.000007800572
172       0.000028336825
173       0.000012652628
174       0.000009778991
175      -0.000001381398
176       0.000003152093
177       0.000000684318
178       0.000003337454
179       0.000001451324
180       0.000004884778
181      -0.000010704939
182      -0.000002515138
183      -0.000011504714
184      -0.000005494525
185       0.000001696223
186       0.000000488746
187       0.000000097383
188      -0.000002408885
189      -0.000001045254
190       0.000001903763
191       0.000001391203
192       0.000001624407
193      -0.000007617314
194       0.000014217578
195      -0.000035414167
196      -0.000060645483
197      -0.000102875800
198       0.000001922088
199       0.000006729878
200      -0.000002817705
201      -0.000006457203
202      -0.000020613253
203       0.000008303608
204       0.000012236459
205       0.000030660383
206      -0.000010405449
207       0.000001483099
208       0.000000755160
209       0.000003352563
210       0.000003528531
211      -0.000001616881
212      -0.000005243296
213      -0.000002723110
214      -0.000011395589
215      -0.000012218807
216       0.000006005921
217      -0.000001810806
218       0.000000112124
219       0.000000530793
220      -0.000002539825
221       0.000001161727
222      -0.000001531841
223      -0.000001988370
224      -0.000000104846
225       0.000000491658
226      -0.000000917688
227       0.000002285737
228       0.000003911308
229       0.000006623462
230      -0.000000121600
231       0.000000519184
232       0.000000182318
233      -0.000000484398
234      -0.000002464358
235      -0.000000538499
236       0.000004683521
237       0.000007697156
238       0.000000676841
239      -0.000000096098
240      -0.000000364294
241      -0.000000052314
242       0.000000779670
243      -0.000000246603
244       0.000000339417
245       0.000001003848
246      -0.000000062415
247      -0.000001915420
248       0.000000870451
249       0.000000116840
250      -0.000000069281
251      -0.000000018674
252      -0.000000565209
253       0.000000176765
254      -0.000000377123
255       0.000000598542
 Sym=     1a
 Ene= -7.30866152730822E+02
 Spin= Alpha
 Occup= 1.000000
  1       0.000000000322
  2       0.000000000263
  3       0.000000000433
  4       0.000000000749
  5       0.000000001187
  6       0.000000001348
  7       0.000000000479
  8      -0.000000004760
  9      -0.000000007308
 10       0.000000006085
 11       0.000000000512
 12      -0.000000001586
 13      -0.000000001499
 14       0.000000007267
 15      -0.000000024318
 16       0.000000076032
 17      -0.000000172125
 18       0.000000283229
 19      -0.000000310222
 20       0.000000103271
 21      -0.000000023987
 22      -0.137356055370
 23       0.121876947986
 24       0.000351954366
 25      -0.228942309415
 26       0.203142044686
 27       0.000586629946
 28      -0.340449905861
 29       0.302083481810
 30       0.000872353601
 31      -0.176450400959
 32       0.156565622604
 33       0.000452125813
 34      -0.005469447579
 35       0.004853077347
 36       0.000014020846
 37      -0.003271931624
 38       0.002903207038
 39       0.000008371446
 40       0.002257352265
 41      -0.002002964090
 42      -0.000005762246
 43      -0.001397967397
 44       0.001240426289
 45       0.000003544661
 46       0.000858519095
 47      -0.000761770279
 48      -0.000002137030
 49      -0.000537033227
 50       0.000476513302
 51       0.000001277283
 52       0.000337243785
 53      -0.000299237803
 54      -0.000000721664
 55      -0.000214188526
 56       0.000190050377
 57       0.000000343141
 58       0.000040668200
 59      -0.000036087799
 60      -0.000000099861
 61       0.000000003099
 62      -0.000000449131
 63       0.000000398868
 64       0.000000021224
 65       0.000000391502
 66       0.000000000687
 67      -0.000001380543
 68       0.000001223703
 69      -0.000000065924
 70      -0.000001255768
 71       0.000000002831
 72       0.000000973817
 73      -0.000000862165
 74       0.000000102323
 75       0.000001930336
 76      -0.000000004556
 77      -0.000001941143
 78       0.000001719127
 79      -0.000000172180
 80      -0.000003251971
 81       0.000000008395
 82       0.000003582957
 83      -0.000003173244
 84       0.000000311658
 85       0.000005886554
 86      -0.000000016794
 87      -0.000006714883
 88       0.000005946660
 89      -0.000000600016
 90      -0.000011328607
 91       0.000000033044
 92       0.000013133394
 93      -0.000011630461
 94       0.000001175935
 95       0.000022195538
 96      -0.000000051446
 97      -0.000020672336
 98       0.000018304883
 99      -0.000001903084
100      -0.000035897693
101       0.000000086132
102       0.000042108346
103      -0.000037282114
104       0.000004046341
105       0.000076298309
106      -0.000000012400
107      -0.000006074635
108       0.000005381236
109      -0.000000492714
110      -0.000009323149
111      -0.000000007272
112       0.000001148209
113      -0.000001019162
114      -0.000000014106
115      -0.000000233270
116       0.000000000654
117       0.000000000493
118       0.000000006931
119      -0.000001052470
120       0.000000935277
121       0.000000047461
122       0.000000856852
123       0.000000001031
124       0.000000001467
125      -0.000000006378
126       0.000000931876
127      -0.000000830141
128      -0.000000106549
129      -0.000001961448
130      -0.000000003265
131      -0.000000004449
132       0.000000007743
133      -0.000001100929
134       0.000000983872
135       0.000000225762
136       0.000004178869