[Molden Format]
[Title]
 Molden file created by orca_2mkl for BaseName=/data01/3/PuF6

[Atoms] AU
Pu   1  94          0.0192922141        -0.0106731732        -0.0267207275 
F    2   9         -0.0140085398         0.0036849660         3.6890798949 
F    3   9         -0.0164481763         0.0090612368        -3.7316743220 
F    4   9         -0.0113950486        -3.7221689995         0.0153578043 
F    5   9         -0.0137572063         3.7022286094         0.0122699918 
F    6   9         -3.6928706856         0.0050890325         0.0149326159 
F    7   9          3.7291893321         0.0127764384         0.0267547426 
[GTO]
  1 0
s   9 1.0 
 61522220.6225290000     17063.6754636881
 27964645.7375129983     -6251.6280422765
 12711202.6079610009      9671.6986576994
  5777819.3672550004       289.2210734849
  2626281.5305699999      4464.1627617163
  1193764.3320770001      2006.5541689788
   542620.1509440000      2788.3025657130
   246645.5231560000      2062.8458110195
   112111.6014350000      2113.6106705618
s   1 1.0 
    50959.8188340000      2417.3024864446
s   1 1.0 
    23163.5540150000      1338.1783156871
s   1 1.0 
    10528.8881890000       740.7931835960
s   1 1.0 
     4785.8582680000       410.0907438407
s   1 1.0 
     2175.3901220000       227.0193920667
s   1 1.0 
      988.8136920000       125.6741468865
s   1 1.0 
      449.4607690000        69.5711104117
s   1 1.0 
      204.3003500000        38.5134057612
s   1 1.0 
       92.8637950000        21.3203786259
s   1 1.0 
       42.2108160000        11.8026058245
s   1 1.0 
       19.1867350000         6.5337257345
s   1 1.0 
        8.7212430000         3.6169614730
s   1 1.0 
        3.9642010000         2.0022893726
s   1 1.0 
        1.8019100000         1.1084341915
s   1 1.0 
        0.8190500000         0.6136106705
s   1 1.0 
        0.3722950000         0.3396843160
s   1 1.0 
        0.1692250000         0.1880435685
s   1 1.0 
        0.0769210000         0.1040983350
s   1 1.0 
        0.0349640000         0.0576269887
s   1 1.0 
        0.0158930000         0.0319017498
p   8 1.0 
   879013.3813660000    139189.6694195126
   366255.5755690000     11873.5310695809
   152606.4898210000     40255.8773916045
    63586.0374250000     19887.9699123185
    26494.1822610000     19138.0697118639
    11039.2426090000     15284.2547358037
     4599.6844200000     14199.0747202623
     1916.5351750000     12759.1191870144
p   1 1.0 
      798.5563230000      6050.9286073116
p   1 1.0 
      332.7318010000      2025.6199998139
p   1 1.0 
      138.6382510000       678.1002843303
p   1 1.0 
       57.7659380000       227.0021001283
p   1 1.0 
       24.0691410000        75.9916416591
p   1 1.0 
       10.0288090000        25.4391026723
p   1 1.0 
        4.1786700000         8.5160397883
p   1 1.0 
        1.7411130000         2.8508461829
p   1 1.0 
        0.7254640000         0.9543549283
p   1 1.0 
        0.3022760000         0.3194807322
p   1 1.0 
        0.1259490000         0.1069506658
p   1 1.0 
        0.0524790000         0.0358032150
d   7 1.0 
    43223.8765000000     60764.0080375267
    17289.5506000000     29755.0800020834
     6915.8202400000     32871.2311092175
     2766.3280960000     30065.6700485816
     1106.5312380000     31905.5201083940
      442.6124950000     28787.6778141197
      177.0449980000     19499.0030796932
d   1 1.0 
       70.8179990000      4928.5761768021
d   1 1.0 
       28.3272000000       991.5770557751
d   1 1.0 
       11.3308800000       199.4947420861
d   1 1.0 
        4.5323520000        40.1362172392
d   1 1.0 
        1.8129410000         8.0749809665
d   1 1.0 
        0.7251760000         1.6245985936
d   1 1.0 
        0.2900710000         0.3268531162
d   1 1.0 
        0.1160280000         0.0657589689
d   1 1.0 
        0.0464110000         0.0132299043
f   6 1.0 
     4758.8680260000     68069.5976130275
     1830.3338560000     59148.9500505355
      703.9745600000     64844.9511990799
      270.7594460000     63667.3327460647
      104.1382490000     46445.9881466115
       40.0531730000     19036.1414891793
f   1 1.0 
       15.4050660000      2680.6684110836
f   1 1.0 
        5.9250260000       312.2864675901
f   1 1.0 
        2.2788560000        36.3800311270
f   1 1.0 
        0.8764830000         4.2381170555
f   1 1.0 
        0.3371090000         0.4937230016
f   1 1.0 
        0.1296570000         0.0575163091

  2 0
s   6 1.0 
    35479.1004410000         1.9229128581
     5318.4728983000         2.2734773358
     1210.4810975000         3.4747482552
      342.8551814000         5.2879612972
      112.0194318100         7.1666332516
       40.7147402500         7.7556346254
s   1 1.0 
       16.0396781100         5.7122450312
s   1 1.0 
        6.5038186700         2.9025947842
s   1 1.0 
        1.5440477500         0.9872011154
s   1 1.0 
        0.6122345300        -0.4932856223
s   1 1.0 
        0.2402798000         0.2445952611
p   4 1.0 
       80.2339004800         4.2755032106
       18.5940107400         4.7314752302
        5.6867902700         4.0864798013
        1.9511006300         2.2989954518
p   1 1.0 
        0.6697021100         0.8635593126
p   1 1.0 
        0.2165130000         0.2105208234
d   1 1.0 
        3.1070000000        20.7284714039
d   1 1.0 
        0.8550000000         2.1672588463
f   1 1.0 
        1.9170000000        24.6547062912

  3 0
s   6 1.0 
    35479.1004410000         1.9229128581
     5318.4728983000         2.2734773358
     1210.4810975000         3.4747482552
      342.8551814000         5.2879612972
      112.0194318100         7.1666332516
       40.7147402500         7.7556346254
s   1 1.0 
       16.0396781100         5.7122450312
s   1 1.0 
        6.5038186700         2.9025947842
s   1 1.0 
        1.5440477500         0.9872011154
s   1 1.0 
        0.6122345300        -0.4932856223
s   1 1.0 
        0.2402798000         0.2445952611
p   4 1.0 
       80.2339004800         4.2755032106
       18.5940107400         4.7314752302
        5.6867902700         4.0864798013
        1.9511006300         2.2989954518
p   1 1.0 
        0.6697021100         0.8635593126
p   1 1.0 
        0.2165130000         0.2105208234
d   1 1.0 
        3.1070000000        20.7284714039
d   1 1.0 
        0.8550000000         2.1672588463
f   1 1.0 
        1.9170000000        24.6547062912

  4 0
s   6 1.0 
    35479.1004410000         1.9229128581
     5318.4728983000         2.2734773358
     1210.4810975000         3.4747482552
      342.8551814000         5.2879612972
      112.0194318100         7.1666332516
       40.7147402500         7.7556346254
s   1 1.0 
       16.0396781100         5.7122450312
s   1 1.0 
        6.5038186700         2.9025947842
s   1 1.0 
        1.5440477500         0.9872011154
s   1 1.0 
        0.6122345300        -0.4932856223
s   1 1.0 
        0.2402798000         0.2445952611
p   4 1.0 
       80.2339004800         4.2755032106
       18.5940107400         4.7314752302
        5.6867902700         4.0864798013
        1.9511006300         2.2989954518
p   1 1.0 
        0.6697021100         0.8635593126
p   1 1.0 
        0.2165130000         0.2105208234
d   1 1.0 
        3.1070000000        20.7284714039
d   1 1.0 
        0.8550000000         2.1672588463
f   1 1.0 
        1.9170000000        24.6547062912

  5 0
s   6 1.0 
    35479.1004410000         1.9229128581
     5318.4728983000         2.2734773358
     1210.4810975000         3.4747482552
      342.8551814000         5.2879612972
      112.0194318100         7.1666332516
       40.7147402500         7.7556346254
s   1 1.0 
       16.0396781100         5.7122450312
s   1 1.0 
        6.5038186700         2.9025947842
s   1 1.0 
        1.5440477500         0.9872011154
s   1 1.0 
        0.6122345300        -0.4932856223
s   1 1.0 
        0.2402798000         0.2445952611
p   4 1.0 
       80.2339004800         4.2755032106
       18.5940107400         4.7314752302
        5.6867902700         4.0864798013
        1.9511006300         2.2989954518
p   1 1.0 
        0.6697021100         0.8635593126
p   1 1.0 
        0.2165130000         0.2105208234
d   1 1.0 
        3.1070000000        20.7284714039
d   1 1.0 
        0.8550000000         2.1672588463
f   1 1.0 
        1.9170000000        24.6547062912

  6 0
s   6 1.0 
    35479.1004410000         1.9229128581
     5318.4728983000         2.2734773358
     1210.4810975000         3.4747482552
      342.8551814000         5.2879612972
      112.0194318100         7.1666332516
       40.7147402500         7.7556346254
s   1 1.0 
       16.0396781100         5.7122450312
s   1 1.0 
        6.5038186700         2.9025947842
s   1 1.0 
        1.5440477500         0.9872011154
s   1 1.0 
        0.6122345300        -0.4932856223
s   1 1.0 
        0.2402798000         0.2445952611
p   4 1.0 
       80.2339004800         4.2755032106
       18.5940107400         4.7314752302
        5.6867902700         4.0864798013
        1.9511006300         2.2989954518
p   1 1.0 
        0.6697021100         0.8635593126
p   1 1.0 
        0.2165130000         0.2105208234
d   1 1.0 
        3.1070000000        20.7284714039
d   1 1.0 
        0.8550000000         2.1672588463
f   1 1.0 
        1.9170000000        24.6547062912

  7 0
s   6 1.0 
    35479.1004410000         1.9229128581
     5318.4728983000         2.2734773358
     1210.4810975000         3.4747482552
      342.8551814000         5.2879612972
      112.0194318100         7.1666332516
       40.7147402500         7.7556346254
s   1 1.0 
       16.0396781100         5.7122450312
s   1 1.0 
        6.5038186700         2.9025947842
s   1 1.0 
        1.5440477500         0.9872011154
s   1 1.0 
        0.6122345300        -0.4932856223
s   1 1.0 
        0.2402798000         0.2445952611
p   4 1.0 
       80.2339004800         4.2755032106
       18.5940107400         4.7314752302
        5.6867902700         4.0864798013
        1.9511006300         2.2989954518
p   1 1.0 
        0.6697021100         0.8635593126
p   1 1.0 
        0.2165130000         0.2105208234
d   1 1.0 
        3.1070000000        20.7284714039
d   1 1.0 
        0.8550000000         2.1672588463
f   1 1.0 
        1.9170000000        24.6547062912

[5D]
[9G]
[MO]
 Sym=     1a
 Ene= -4.48901150551400E+03
 Spin= Alpha
 Occup= 2.000000
  1       0.089707816787
  2       0.067509794453
  3       0.114799867030
  4       0.180028269143
  5       0.264901753001
  6       0.299423685422
  7       0.188405325192
  8       0.030967081803
  9       0.000918149250
 10      -0.000657510020
 11       0.000477928705
 12      -0.000351502198
 13       0.000249902659
 14      -0.000169717500
 15       0.000114459556
 16      -0.000077917459
 17       0.000052794359
 18      -0.000031945998
 19       0.000011196595
 20      -0.000004613659
 21       0.000001291778
 22       0.000000005474
 23      -0.000000003003
 24      -0.000000006726
 25      -0.000000000745
 26       0.000000000401
 27       0.000000000622
 28      -0.000000000268
 29       0.000000000139
 30       0.000000000052
 31       0.000000000215
 32      -0.000000000109
 33      -0.000000000011
 34      -0.000000000511
 35       0.000000000263
 36       0.000000000113
 37       0.000000001078
 38      -0.000000000560
 39      -0.000000000405
 40      -0.000000001873
 41       0.000000000973
 42       0.000000000697
 43       0.000000003486
 44      -0.000000001814
 45      -0.000000001342
 46      -0.000000006640
 47       0.000000003451
 48       0.000000002293
 49       0.000000013731
 50      -0.000000007166
 51      -0.000000005186
 52      -0.000000045069
 53       0.000000024256
 54       0.000000039693
 55       0.000000152657
 56      -0.000000083178
 57      -0.000000169297
 58      -0.000000018733
 59       0.000000010262
 60       0.000000022740
 61       0.000000000035
 62       0.000000000070
 63      -0.000000000045
 64       0.000000000023
 65       0.000000000027
 66       0.000000000018
 67      -0.000000000098
 68       0.000000000059
 69       0.000000000017
 70      -0.000000000036
 71       0.000000000124
 72       0.000000000180
 73      -0.000000000109
 74       0.000000000069
 75       0.000000000065
 76      -0.000000000224
 77      -0.000000000205
 78       0.000000000125
 79      -0.000000000122
 80      -0.000000000071
 81       0.000000000401
 82       0.000000000292
 83      -0.000000000181
 84       0.000000000214
 85       0.000000000100
 86      -0.000000000588
 87      -0.000000000420
 88       0.000000000266
 89      -0.000000000278
 90      -0.000000000143
 91       0.000000000196
 92       0.000000000264
 93      -0.000000000199
 94      -0.000000000123
 95       0.000000000090
 96       0.000000001039
 97       0.000000000408
 98      -0.000000000144
 99       0.000000001000
100       0.000000000136
101      -0.000000004389
102      -0.000000002714
103       0.000000001697
104      -0.000000003988
105      -0.000000000749
106       0.000000000669
107       0.000000001040
108      -0.000000000662
109       0.000000000648
110       0.000000000350
111      -0.000000000338
112      -0.000000000147
113       0.000000000062
114       0.000000000045
115       0.000000000002
116      -0.000000000162
117      -0.000000000107
118       0.000000000839
119       0.000000000365
120      -0.000000000149
121      -0.000000000123
122      -0.000000000004
123       0.000000000396
124       0.000000000265
125      -0.000000001394
126      -0.000000000609
127       0.000000000231
128       0.000000000243
129       0.000000000009
130      -0.000000000636
131      -0.000000000442
132       0.000000001768
133       0.000000000836
134      -0.000000000268
135      -0.000000000431
136      -0.000000000015
137       0.000000000814
138       0.000000000604
139       0.000000001172
140      -0.000000000120
141      -0.000000000254
142       0.000000000631
143       0.000000000023
144       0.000000000224
145      -0.000000000061
146      -0.000000017726
147      -0.000000005247
148       0.000000003323
149      -0.000000000566
150      -0.000000000016
151      -0.000000007079
152      -0.000000003897
153       0.000000011963
154       0.000000000654
155       0.000000000807
156      -0.000000003125
157      -0.000000000099
158      -0.000000001086
159       0.000000000778
160      -0.000000025676
161       0.000000114661
162      -0.000000206918
163       0.000000452437
164       0.000000675503
165       0.000001240399
166       0.000000001032
167      -0.000000000455
168      -0.000000093165
169      -0.000000001092
170       0.000000000470
171       0.000000103341
172      -0.000000001643
173       0.000000001080
174      -0.000000740321
175       0.000000086013
176      -0.000000002010
177       0.000000000903
178      -0.000000000075
179      -0.000000000026
180      -0.000000233198
181       0.000000005629
182      -0.000000002523
183       0.000000000221
184       0.000000000071
185       0.000000157536
186      -0.000000003251
187       0.000000001367
188       0.000000000012
189      -0.000000000022
190      -0.000000000056
191      -0.000000000029
192      -0.000000025438
193       0.000000113685
194      -0.000000205407
195       0.000000449078
196       0.000000641603
197       0.000001120099
198       0.000000001245
199      -0.000000000691
200       0.000000097407
201      -0.000000001625
202       0.000000000940
203      -0.000000119889
204      -0.000000002328
205       0.000000000619
206       0.000000685610
207       0.000000088764
208       0.000000002255
209      -0.000000001198
210       0.000000000072
211      -0.000000000025
212      -0.000000248171
213      -0.000000006460
214       0.000000003420
215      -0.000000000201
216       0.000000000069
217      -0.000000159379
218      -0.000000003562
219       0.000000001957
220      -0.000000000037
221       0.000000000031
222      -0.000000000078
223      -0.000000000047
224      -0.000000025323
225       0.000000113107
226      -0.000000204154
227       0.000000444738
228       0.000000642094
229       0.000001138528
230       0.000000001064
231       0.000000095467
232      -0.000000001252
233      -0.000000001347
234      -0.000000111607
235       0.000000001221
236      -0.000000002038
237       0.000000697431
238       0.000000003175
239      -0.000000043794
240      -0.000000000063
241      -0.000000002421
242      -0.000000075804
243       0.000000001940
244       0.000000120435
245       0.000000000169
246       0.000000006792
247       0.000000208456
248      -0.000000005493
249      -0.000000002545
250       0.000000000678
251       0.000000096819
252      -0.000000003089
253       0.000000000058
254      -0.000000002913
255      -0.000000125006
256      -0.000000025643
257       0.000000114536
258      -0.000000206753
259       0.000000452024
260       0.000000666748
261       0.000001207623
262       0.000000001082
263      -0.000000094520
264      -0.000000001094
265      -0.000000001293
266       0.000000108396
267       0.000000000890
268      -0.000000001120
269      -0.000000724818
270       0.000000003038
271      -0.000000043423
272      -0.000000000068
273       0.000000002235
274      -0.000000075255
275      -0.000000001995
276       0.000000118770
277       0.000000000182
278      -0.000000006230
279       0.000000205839
280       0.000000005610
281      -0.000000002334
282       0.000000000747
283      -0.000000096802
284      -0.000000002848
285      -0.000000000059
286      -0.000000003149
287       0.000000124986
288      -0.000000025844
289       0.000000115445
290      -0.000000208456
291       0.000000457011
292       0.000000680340
293       0.000001242112
294       0.000000094495
295      -0.000000000517
296      -0.000000001144
297      -0.000000108614
298       0.000000000564
299       0.000000000826
300       0.000000737716
301       0.000000001683
302       0.000000004525
303      -0.000000043414
304      -0.000000002460
305       0.000000000047
306       0.000000075133
307      -0.000000001025
308       0.000000118860
309       0.000000006900
310      -0.000000000125
311      -0.000000205679
312       0.000000002900
313      -0.000000002521
314       0.000000096949
315      -0.000000000350
316       0.000000003093
317      -0.000000000034
318       0.000000125207
319      -0.000000001493
320      -0.000000025231
321       0.000000112707
322      -0.000000203458
323       0.000000442961
324       0.000000634216
325       0.000001114425
326      -0.000000096056
327      -0.000000000760
328      -0.000000001560
329       0.000000113810
330       0.000000000922
331       0.000000001495
332      -0.000000687515
333       0.000000000739
334       0.000000003806
335      -0.000000043906
336       0.000000003060
337       0.000000000052
338       0.000000076117
339       0.000000001385
340       0.000000121229
341      -0.000000008638
342      -0.000000000141
343      -0.000000210164
344      -0.000000003922
345      -0.000000003291
346      -0.000000096864
347      -0.000000000543
348       0.000000004049
349       0.000000000057
350      -0.000000125138
351      -0.000000002273
 Sym=     1a
 Ene= -8.54730971125417E+02
 Spin= Alpha
 Occup= 2.000000
  1       0.038294004288
  2       0.031156825935
  3       0.051668336109
  4       0.088895306110
  5       0.140005794132
  6       0.175203667605
  7       0.061930354368
  8      -0.380717837970
  9      -0.603123442367
 10      -0.160443950550
 11       0.001810803193
 12      -0.001355914947
 13       0.000663137375
 14      -0.000305117632
 15       0.000151825423
 16      -0.000093014664
 17       0.000060534458
 18      -0.000035518509
 19       0.000012436867
 20      -0.000005087354
 21       0.000001418130
 22       0.000000001553
 23      -0.000000000486
 24       0.000000011523
 25      -0.000000007789
 26       0.000000004863
 27       0.000000031165
 28      -0.000000007258
 29       0.000000004937
 30       0.000000044364
 31      -0.000000020838
 32       0.000000012269
 33       0.000000055911
 34      -0.000000008312
 35       0.000000004743
 36       0.000000016132
 37       0.000000005158
 38      -0.000000002828
 39      -0.000000005911
 40      -0.000000002041
 41       0.000000001091
 42       0.000000001448
 43       0.000000003725
 44      -0.000000001961
 45      -0.000000002101
 46      -0.000000008596
 47       0.000000004524
 48       0.000000004852
 49       0.000000015675
 50      -0.000000008217
 51      -0.000000007451
 52      -0.000000049051
 53       0.000000026431
 54       0.000000043783
 55       0.000000166844
 56      -0.000000090990
 57      -0.000000184591
 58      -0.000000020685
 59       0.000000011329
 60       0.000000025219
 61       0.000000000225
 62      -0.000000005782
 63       0.000000003612
 64       0.000000000053
 65      -0.000000002186
 66       0.000000003843
 67      -0.000000000516
 68       0.000000000285
 69       0.000000002534
 70      -0.000000000214
 71      -0.000000000791
 72       0.000000001407
 73      -0.000000000807
 74      -0.000000000547
 75       0.000000000526
 76       0.000000000543
 77      -0.000000000499
 78       0.000000000283
 79       0.000000000415
 80      -0.000000000184
 81      -0.000000000044
 82       0.000000000121
 83      -0.000000000075
 84      -0.000000000141
 85       0.000000000038
 86      -0.000000000725
 87      -0.000000000425
 88       0.000000000270
 89      -0.000000000243
 90      -0.000000000143
 91       0.000000000413
 92       0.000000000206
 93      -0.000000000167
 94      -0.000000000255
 95       0.000000000065
 96       0.000000000732
 97       0.000000000613
 98      -0.000000000255
 99       0.000000001191
100       0.000000000216
101      -0.000000004165
102      -0.000000002983
103       0.000000001865
104      -0.000000004343
105      -0.000000000825
106       0.000000000503
107       0.000000001139
108      -0.000000000725
109       0.000000000707
110       0.000000000384
111       0.000000007375
112       0.000000003156
113      -0.000000001402
114      -0.000000000824
115      -0.000000000018
116       0.000000003572
117       0.000000002299
118       0.000000001242
119       0.000000000630
120      -0.000000000328
121      -0.000000000042
122      -0.000000000009
123       0.000000000785
124       0.000000000446
125      -0.000000003940
126      -0.000000001771
127       0.000000000806
128       0.000000000402
129       0.000000000019
130      -0.000000002038
131      -0.000000001277
132       0.000000002072
133       0.000000000921
134      -0.000000000310
135      -0.000000000442
136      -0.000000000018
137       0.000000000913
138       0.000000000662
139       0.000000002466
140       0.000000000591
141      -0.000000000622
142       0.000000000562
143       0.000000000021
144       0.000000001108
145       0.000000000460
146      -0.000000020841
147      -0.000000006797
148       0.000000004160
149      -0.000000000476
150      -0.000000000013
151      -0.000000009039
152      -0.000000005034
153       0.000000013746
154       0.000000000965
155       0.000000000776
156      -0.000000003437
157      -0.000000000109
158      -0.000000000872
159       0.000000001002
160      -0.000000025148
161       0.000000120960
162      -0.000000221767
163       0.000000499609
164       0.000000743735
165       0.000001328514
166       0.000000001106
167      -0.000000000486
168      -0.000000104205
169      -0.000000001292
170       0.000000000551
171       0.000000137361
172      -0.000000001912
173       0.000000001228
174      -0.000000799534
175       0.000000094943
176      -0.000000002162
177       0.000000000970
178      -0.000000000079
179      -0.000000000028
180      -0.000000271389
181       0.000000006256
182      -0.000000002796
183       0.000000000234
184       0.000000000076
185       0.000000175928
186      -0.000000003601
187       0.000000001513
188       0.000000000016
189      -0.000000000024
190      -0.000000000058
191      -0.000000000029
192      -0.000000024874
193       0.000000119850
194      -0.000000219987
195       0.000000496165
196       0.000000707999
197       0.000001198228
198       0.000000001331
199      -0.000000000740
200       0.000000108387
201      -0.000000001875
202       0.000000001090
203      -0.000000155417
204      -0.000000002657
205       0.000000000737
206       0.000000739257
207       0.000000097750
208       0.000000002421
209      -0.000000001288
210       0.000000000076
211      -0.000000000027
212      -0.000000287775
213      -0.000000007164
214       0.000000003804
215      -0.000000000215
216       0.000000000074
217      -0.000000177804
218      -0.000000003940
219       0.000000002167
220      -0.000000000038
221       0.000000000033
222      -0.000000000081
223      -0.000000000048
224      -0.000000024801
225       0.000000119406
226      -0.000000218939
227       0.000000491828
228       0.000000708674
229       0.000001218356
230       0.000000001139
231       0.000000106771
232      -0.000000001358
233      -0.000000001560
234      -0.000000147156
235       0.000000001521
236      -0.000000002328
237       0.000000752814
238       0.000000003607
239      -0.000000048317
240      -0.000000000067
241      -0.000000002619
242      -0.000000083633
243       0.000000002084
244       0.000000140001
245       0.000000000181
246       0.000000007614
247       0.000000242334
248      -0.000000006090
249      -0.000000002825
250       0.000000000755
251       0.000000108107
252      -0.000000003438
253       0.000000000062
254      -0.000000003223
255      -0.000000139578
256      -0.000000025114
257       0.000000120843
258      -0.000000221615
259       0.000000499387
260       0.000000734914
261       0.000001293901
262       0.000000001160
263      -0.000000105664
264      -0.000000001186
265      -0.000000001516
266       0.000000143132
267       0.000000001143
268      -0.000000001330
269      -0.000000782913
270       0.000000003445
271      -0.000000047902
272      -0.000000000072
273       0.000000002416
274      -0.000000083011
275      -0.000000002145
276       0.000000138071
277       0.000000000195
278      -0.000000006979
279       0.000000239273
280       0.000000006237
281      -0.000000002591
282       0.000000000832
283      -0.000000108078
284      -0.000000003168
285      -0.000000000064
286      -0.000000003487
287       0.000000139538
288      -0.000000025304
289       0.000000121743
290      -0.000000223344
291       0.000000504606
292       0.000000749441
293       0.000001331413
294       0.000000105599
295      -0.000000000550
296      -0.000000001235
297      -0.000000143218
298       0.000000000649
299       0.000000001060
300       0.000000797048
301       0.000000001889
302       0.000000005079
303      -0.000000047870
304      -0.000000002652
305       0.000000000050
306       0.000000082844
307      -0.000000001097
308       0.000000138104
309       0.000000007695
310      -0.000000000134
311      -0.000000238995
312       0.000000003199
313      -0.000000002793
314       0.000000108216
315      -0.000000000390
316       0.000000003434
317      -0.000000000036
318       0.000000139753
319      -0.000000001648
320      -0.000000024709
321       0.000000118998
322      -0.000000218215
323       0.000000490035
324       0.000000700395
325       0.000001192060
326      -0.000000107433
327      -0.000000000819
328      -0.000000001695
329       0.000000149799
330       0.000000001093
331       0.000000001872
332      -0.000000741914
333       0.000000000875
334       0.000000004324
335      -0.000000048435
336       0.000000003311
337       0.000000000055
338       0.000000083965
339       0.000000001492
340       0.000000140908
341      -0.000000009687
342      -0.000000000152
343      -0.000000244262
344      -0.000000004375
345      -0.000000003654
346      -0.000000108151
347      -0.000000000605
348       0.000000004502
349       0.000000000062
350      -0.000000139713
351      -0.000000002519
 Sym=     1a
 Ene= -7.12415851610365E+02
 Spin= Alpha
 Occup= 2.000000
  1       0.000000002680
  2       0.000000002213
  3       0.000000003531
  4       0.000000006541
  5       0.000000009223
  6       0.000000013994
  7       0.000000000240
  8      -0.000000022710
  9      -0.000000064531
 10       0.000000034875
 11      -0.000000048698
 12       0.000000089754
 13      -0.000000150529
 14       0.000000248735
 15      -0.000000404385
 16       0.000000545863
 17      -0.000000366344
 18       0.000000067562
 19      -0.000000182697
 20       0.000000158423
 21      -0.000000039259
 22      -0.118420775439
 23       0.049854573217
 24      -0.128559557586
 25      -0.198788702359
 26       0.083689081541
 27      -0.215808311734
 28      -0.296948458634
 29       0.125013863089
 30      -0.322372171703
 31      -0.154691843500
 32       0.065124517821
 33      -0.167936031097
 34      -0.004921480107
 35       0.002071920560
 36      -0.005342834430
 37      -0.002856280684
 38       0.001202479520
 39      -0.003100833791
 40       0.001982841572
 41      -0.000834765871
 42       0.002152618780
 43      -0.001241784518
 44       0.000522783154
 45      -0.001348125747
 46       0.000786491239
 47      -0.000331100214
 48       0.000853878672
 49      -0.000532496890
 50       0.000224149320
 51      -0.000578198435
 52       0.000375194829
 53      -0.000157923254
 54       0.000407445444
 55      -0.000246919956
 56       0.000103976864
 57      -0.000268042687
 58       0.000024014633
 59      -0.000010103778
 60       0.000026067061
 61       0.000000047493
 62       0.000000006210
 63      -0.000000004073
 64      -0.000000011730
 65      -0.000000008466
 66      -0.000000004907
 67       0.000000011546
 68      -0.000000000810
 69       0.000000004296
 70       0.000000022146
 71       0.000000012529
 72      -0.000000011577
 73      -0.000000001206
 74      -0.000000007095
 75      -0.000000033728
 76       0.000000033297