[Molden Format]
[Title]
 Molden file created by orca_2mkl for BaseName=/home/nikolayandreadi/CCact/Am_OH_3

[Atoms] AU
Am   1  95         -0.1440254773        -0.2099183379         0.3719831408 
O    2   8         -1.1606112099        -1.6800477913        -2.7484517042 
O    3   8         -1.1769573410         3.2179995156         0.0330928841 
O    4   8          3.4328122442        -0.0171341469         0.0537986133 
H    5   1         -1.6293974617         4.9405472477        -0.2464845386 
H    6   1         -1.6046949617        -2.3249546290        -4.3722971506 
H    7   1          5.2081740422         0.1413061614        -0.2164586800 
[GTO]
  1 0
s   9 1.0 
 62843653.3261049986     17689.9938137226
 28565296.9664120004     -6499.4966822043
 12984225.8938229997     10011.1098279634
  5901920.8608290004       268.1321452514
  2682691.3003770001      4597.7001645785
  1219405.1365350001      2040.1098732743
   554275.0620610000      2849.1377853557
   251943.2100280000      2091.1701999455
   114519.6409220000      2140.7191514154
s   1 1.0 
    52054.3822370000      2456.1396994492
s   1 1.0 
    23661.0828350000      1359.6779486971
s   1 1.0 
    10755.0376520000       752.6950216035
s   1 1.0 
     4888.6534780000       416.6794027104
s   1 1.0 
     2222.1152170000       230.6667636277
s   1 1.0 
     1010.0523720000       127.6932709570
s   1 1.0 
      459.1147140000        70.6888637489
s   1 1.0 
      208.6885070000        39.1321753804
s   1 1.0 
       94.8584120000        21.6629191925
s   1 1.0 
       43.1174600000        11.9922305466
s   1 1.0 
       19.5988450000         6.6386985846
s   1 1.0 
        8.9085660000         3.6750727756
s   1 1.0 
        4.0493480000         2.0344588892
s   1 1.0 
        1.8406130000         1.1262426144
s   1 1.0 
        0.8366420000         0.6234689638
s   1 1.0 
        0.3802920000         0.3451421375
s   1 1.0 
        0.1728600000         0.1910649274
s   1 1.0 
        0.0785730000         0.1057706306
s   1 1.0 
        0.0357150000         0.0585528560
s   1 1.0 
        0.0162340000         0.0324137478
p   8 1.0 
   898929.0904960000    146952.9919960352
   374553.7877070000     12442.5504737331
   156064.0782110000     42330.7420411669
    65026.6992550000     20798.1925978207
    27094.4580230000     19960.4353800448
    11289.3575090000     15850.9959832866
     4703.8989620000     14651.0236957151
     1959.9579010000     13090.7471121984
p   1 1.0 
      816.6491250000      6222.7802438241
p   1 1.0 
      340.2704690000      2083.1493738863
p   1 1.0 
      141.7793620000       697.3589194406
p   1 1.0 
       59.0747340000       233.4491550447
p   1 1.0 
       24.6144730000        78.1498709600
p   1 1.0 
       10.2560300000        26.1615933656
p   1 1.0 
        4.2733460000         8.7579035915
p   1 1.0 
        1.7805610000         2.9318122746
p   1 1.0 
        0.7419000000         0.9814581862
p   1 1.0 
        0.3091250000         0.3285547495
p   1 1.0 
        0.1288020000         0.1099875039
p   1 1.0 
        0.0536680000         0.0368200481
d   7 1.0 
    44331.4203980000     64843.3162357617
    17732.5681590000     31602.7270381044
     7093.0272640000     34771.4571863981
     2837.2109050000     31646.3841018500
     1134.8843620000     33447.3115951331
      453.9537450000     30100.7570519384
      181.5814980000     20377.9074888751
d   1 1.0 
       72.6325990000      5151.6975337973
d   1 1.0 
       29.0530400000      1036.4666967504
d   1 1.0 
       11.6212160000       208.5260597195
d   1 1.0 
        4.6484860000        41.9532158346
d   1 1.0 
        1.8593950000         8.4405449381
d   1 1.0 
        0.7437580000         1.6981477392
d   1 1.0 
        0.2975030000         0.3416488358
d   1 1.0 
        0.1190010000         0.0687359046
d   1 1.0 
        0.0476010000         0.0138292369
f   6 1.0 
     4946.8424820000     73594.6252860846
     1902.6317240000     64088.9553591663
      731.7814320000     69700.9550562524
      281.4543970000     68616.7606773400
      108.2516910000     50302.6238411210
       41.6352660000     20807.7454297462
f   1 1.0 
       16.0135640000      2924.8128280079
f   1 1.0 
        6.1590630000       340.7281644870
f   1 1.0 
        2.3688700000        39.6933580891
f   1 1.0 
        0.9111040000         4.6241080567
f   1 1.0 
        0.3504250000         0.5386901243
f   1 1.0 
        0.1347790000         0.0627552547

  2 0
s   6 1.0 
    27032.3826310000         1.4645050749
     4052.3871392000         1.8244031008
      922.3272271000         2.8547160967
      261.2407098900         4.3654874290
       85.3546413500         5.8940772662
       31.0350352400         6.2963020147
s   1 1.0 
       12.2608607300         4.6698272139
s   1 1.0 
        4.9987076000         2.3826123703
s   1 1.0 
        1.1703108200         0.8019291632
s   1 1.0 
        0.4647474100        -0.4011648063
s   1 1.0 
        0.1850453600         0.2010799377
p   4 1.0 
       63.2749548000         3.0898340730
       14.6270493800         3.3923831935
        4.4501223500         2.9482801524
        1.5275799600         1.7113350234
p   1 1.0 
        0.5293511800         0.6436057935
p   1 1.0 
        0.1747842100         0.1610897223
d   1 1.0 
        2.3140000000        12.3767310624
d   1 1.0 
        0.6450000000         1.3234257612
f   1 1.0 
        1.4280000000        12.7097950062

  3 0
s   6 1.0 
    27032.3826310000         1.4645050749
     4052.3871392000         1.8244031008
      922.3272271000         2.8547160967
      261.2407098900         4.3654874290
       85.3546413500         5.8940772662
       31.0350352400         6.2963020147
s   1 1.0 
       12.2608607300         4.6698272139
s   1 1.0 
        4.9987076000         2.3826123703
s   1 1.0 
        1.1703108200         0.8019291632
s   1 1.0 
        0.4647474100        -0.4011648063
s   1 1.0 
        0.1850453600         0.2010799377
p   4 1.0 
       63.2749548000         3.0898340730
       14.6270493800         3.3923831935
        4.4501223500         2.9482801524
        1.5275799600         1.7113350234
p   1 1.0 
        0.5293511800         0.6436057935
p   1 1.0 
        0.1747842100         0.1610897223
d   1 1.0 
        2.3140000000        12.3767310624
d   1 1.0 
        0.6450000000         1.3234257612
f   1 1.0 
        1.4280000000        12.7097950062

  4 0
s   6 1.0 
    27032.3826310000         1.4645050749
     4052.3871392000         1.8244031008
      922.3272271000         2.8547160967
      261.2407098900         4.3654874290
       85.3546413500         5.8940772662
       31.0350352400         6.2963020147
s   1 1.0 
       12.2608607300         4.6698272139
s   1 1.0 
        4.9987076000         2.3826123703
s   1 1.0 
        1.1703108200         0.8019291632
s   1 1.0 
        0.4647474100        -0.4011648063
s   1 1.0 
        0.1850453600         0.2010799377
p   4 1.0 
       63.2749548000         3.0898340730
       14.6270493800         3.3923831935
        4.4501223500         2.9482801524
        1.5275799600         1.7113350234
p   1 1.0 
        0.5293511800         0.6436057935
p   1 1.0 
        0.1747842100         0.1610897223
d   1 1.0 
        2.3140000000        12.3767310624
d   1 1.0 
        0.6450000000         1.3234257612
f   1 1.0 
        1.4280000000        12.7097950062

  5 0
s   3 1.0 
       34.0613410000         0.2556300129
        5.1235746000         0.4613599287
        1.1646626000         0.6811215012
s   1 1.0 
        0.3272304100         0.3083545312
s   1 1.0 
        0.1030724100         0.1296483265
p   1 1.0 
        0.8000000000         1.0784563492

  6 0
s   3 1.0 
       34.0613410000         0.2556300129
        5.1235746000         0.4613599287
        1.1646626000         0.6811215012
s   1 1.0 
        0.3272304100         0.3083545312
s   1 1.0 
        0.1030724100         0.1296483265
p   1 1.0 
        0.8000000000         1.0784563492

  7 0
s   3 1.0 
       34.0613410000         0.2556300129
        5.1235746000         0.4613599287
        1.1646626000         0.6811215012
s   1 1.0 
        0.3272304100         0.3083545312
s   1 1.0 
        0.1030724100         0.1296483265
p   1 1.0 
        0.8000000000         1.0784563492

[5D]
[9G]
[MO]
 Sym=     1a
 Ene= -4.60599869063134E+03
 Spin= Alpha
 Occup= 1.000000
  1       0.092192960562
  2       0.068715647130
  3       0.116385541723
  4       0.181272817077
  5       0.265108852280
  6       0.297467934123
  7       0.186090892947
  8       0.030326227281
  9       0.000945076029
 10      -0.000681479352
 11       0.000494343457
 12      -0.000362188294
 13       0.000257297382
 14      -0.000175419900
 15       0.000119609159
 16      -0.000083656800
 17       0.000060239208
 18      -0.000038486971
 19       0.000001291107
 20      -0.000002724589
 21       0.000000696069
 22      -0.000000080712
 23      -0.000000113623
 24       0.000000199633
 25       0.000000017244
 26       0.000000024289
 27      -0.000000042678
 28       0.000000000350
 29       0.000000000499
 30      -0.000000000873
 31       0.000000003105
 32       0.000000004365
 33      -0.000000007675
 34      -0.000000003217
 35      -0.000000004518
 36       0.000000007947
 37       0.000000000319
 38       0.000000000428
 39      -0.000000000770
 40       0.000000000003
 41       0.000000000036
 42      -0.000000000032
 43      -0.000000009207
 44      -0.000000013012
 45       0.000000022813
 46       0.000000047080
 47       0.000000066357
 48      -0.000000116525
 49      -0.000000177010
 50      -0.000000249290
 51       0.000000437973
 52       0.000000527563
 53       0.000000742778
 54      -0.000001305145
 55      -0.000002539286
 56      -0.000003574597
 57       0.000006281408
 58       0.000000168586
 59       0.000000237400
 60      -0.000000416470
 61      -0.000000029094
 62       0.000000026896
 63       0.000000037935
 64       0.000000005351
 65      -0.000000015318
 66       0.000000033618
 67      -0.000000031079
 68      -0.000000043841
 69      -0.000000006179
 70       0.000000017699
 71      -0.000000031224
 72       0.000000028851
 73       0.000000040730
 74       0.000000005727
 75      -0.000000016435
 76       0.000000039182
 77      -0.000000036192
 78      -0.000000051119
 79      -0.000000007178
 80       0.000000020621
 81      -0.000000058209
 82       0.000000053752
 83       0.000000075950
 84       0.000000010656
 85      -0.000000030634
 86       0.000000089865
 87      -0.000000082954
 88      -0.000000117258
 89      -0.000000016437
 90       0.000000047299
 91      -0.000000109627
 92       0.000000101066
 93       0.000000143015
 94       0.000000020002
 95      -0.000000057738
 96       0.000000101890
 97      -0.000000093534
 98      -0.000000132780
 99      -0.000000018453
100       0.000000053828
101       0.000001168561
102      -0.000001082697
103      -0.000001525731
104      -0.000000215077
105       0.000000613454
106      -0.000000134103
107       0.000000124059
108       0.000000174733
109       0.000000024692
110      -0.000000070365
111      -0.000000000358
112      -0.000000007960
113      -0.000000011378
114       0.000000000891
115      -0.000000002046
116      -0.000000012359
117       0.000000003343
118       0.000000001270
119       0.000000026423
120       0.000000037773
121      -0.000000003064
122       0.000000007086
123       0.000000041311
124      -0.000000011172
125      -0.000000002615
126      -0.000000056326
127      -0.000000080515
128       0.000000006410
129      -0.000000014773
130      -0.000000087739
131       0.000000023730
132       0.000000004603
133       0.000000105499
134       0.000000150791
135      -0.000000011617
136       0.000000026609
137       0.000000163301
138      -0.000000044173
139      -0.000000005148
140      -0.000000157201
141      -0.000000224622
142       0.000000015065
143      -0.000000033530
144      -0.000000237378
145       0.000000064251
146      -0.000000004409
147       0.000000100016
148       0.000000142632
149       0.000000000475
150      -0.000000006098
151       0.000000124429
152      -0.000000033878
153       0.000000079942
154       0.000000818111
155       0.000001170873
156      -0.000000148042
157       0.000000364345
158       0.000001419295
159      -0.000000382774
160      -0.000000054969
161       0.000000252822
162      -0.000000479464
163       0.000001488821
164       0.000003323065
165       0.000006116942
166       0.000000015486
167       0.000000022785
168       0.000000093964
169       0.000000129146
170       0.000000186083
171       0.000000304337
172       0.000001354049
173       0.000001965586
174       0.000004968488
175       0.000000092647
176       0.000000042624
177       0.000000062079
178      -0.000000008746
179       0.000000023254
180      -0.000000583829
181      -0.000000306359
182      -0.000000445032
183       0.000000054491
184      -0.000000144001
185      -0.000000022490
186      -0.000000059373
187      -0.000000085558
188       0.000000021106
189      -0.000000056211
190      -0.000000023723
191       0.000000006143
192      -0.000000054957
193       0.000000252765
194      -0.000000479354
195       0.000001488447
196       0.000003322160
197       0.000006112448
198       0.000000015875
199      -0.000000092256
200       0.000000028628
201       0.000000131055
202      -0.000000356244
203      -0.000000003498
204       0.000001379100
205      -0.000005265558
206       0.000000861524
207      -0.000000051526
208       0.000000002042
209      -0.000000037416
210      -0.000000091528
211      -0.000000049361
212       0.000000366061
213      -0.000000034457
214       0.000000210418
215       0.000000599631
216       0.000000342475
217       0.000000005343
218       0.000000017868
219      -0.000000072805
220       0.000000007208
221       0.000000001992
222      -0.000000084016
223       0.000000052781
224      -0.000000054960
225       0.000000252781
226      -0.000000479387
227       0.000001488581
228       0.000003322508
229       0.000006114383
230      -0.000000092329
231      -0.000000016269
232       0.000000028193
233      -0.000000379453
234       0.000000002075
235      -0.000000005830
236      -0.000005426315
237      -0.000000488694
238       0.000000832387
239      -0.000000051808
240      -0.000000034868
241      -0.000000010621
242       0.000000102191
243       0.000000020446
244       0.000000367879
245       0.000000202560
246       0.000000038214
247      -0.000000681458
248      -0.000000119205
249       0.000000004288
250      -0.000000074693
251      -0.000000007984
252      -0.000000005276
253      -0.000000002971
254      -0.000000099240
255      -0.000000003139
256       0.000000130071
257       0.000002576361
258       0.000000949098
259       0.000000142519
260      -0.000000582738
261       0.000000111822
262       0.000000130110
263       0.000002576151
264       0.000000949434
265       0.000000139657
266       0.000000203365
267       0.000000558095
268       0.000000130084
269       0.000002576284
270       0.000000949081
271      -0.000000597076
272      -0.000000063289
273       0.000000108888
 Sym=     1a
 Ene= -8.80019063413906E+02
 Spin= Alpha
 Occup= 1.000000
  1      -0.039577855749
  2      -0.031908616634
  3      -0.052654279046
  4      -0.090019972014
  5      -0.140617033018
  6      -0.173782179418
  7      -0.056536214760
  8       0.386569810365
  9       0.598912000983
 10       0.155626412920
 11      -0.001636998903
 12       0.001128574620
 13      -0.000506375016
 14       0.000201597395
 15      -0.000083548530
 16       0.000047745102
 17      -0.000031479426
 18       0.000018896889
 19      -0.000000888673
 20       0.000001384125
 21      -0.000000347135
 22      -0.000000087765
 23      -0.000000123433
 24       0.000000216637
 25      -0.000000293283
 26      -0.000000412704
 27       0.000000724697
 28      -0.000000279232
 29      -0.000000392543
 30       0.000000689265
 31      -0.000000833395
 32      -0.000001173429
 33       0.000002060879
 34      -0.000000291072
 35      -0.000000410064
 36       0.000000720223
 37       0.000000103208
 38       0.000000145436
 39      -0.000000255469
 40      -0.000000024862
 41      -0.000000035080
 42       0.000000061615
 43       0.000000016888
 44       0.000000023821
 45      -0.000000041882
 46      -0.000000054777
 47      -0.000000077154
 48       0.000000135634
 49       0.000000109652
 50       0.000000154388
 51      -0.000000271407
 52      -0.000000261876
 53      -0.000000368613
 54       0.000000648023
 55       0.000001196489
 56       0.000001683952
 57      -0.000002960264
 58      -0.000000076958
 59      -0.000000108375
 60       0.000000190181
 61      -0.000002371389
 62       0.000002192560
 63       0.000003092039
 64       0.000000436333
 65      -0.000001248510
 66      -0.000000420943
 67       0.000000389381
 68       0.000000548807
 69       0.000000077494
 70      -0.000000221651
 71       0.000000254909
 72      -0.000000235729
 73      -0.000000332405
 74      -0.000000046839
 75       0.000000134206
 76      -0.000000119205
 77       0.000000110247
 78       0.000000155442
 79       0.000000021906
 80      -0.000000062752
 81       0.000000063326
 82      -0.000000058553
 83      -0.000000082576
 84      -0.000000011637
 85       0.000000033329
 86      -0.000000054306
 87       0.000000050153
 88       0.000000070839
 89       0.000000009947
 90      -0.000000028577
 91       0.000000062663
 92      -0.000000057824
 93      -0.000000081752
 94      -0.000000011460
 95       0.000000032998
 96      -0.000000045057
 97       0.000000041393
 98       0.000000058764
 99       0.000000008175
100      -0.000000023807
101      -0.000000548739
102       0.000000508692
103       0.000000716906
104       0.000000101112
105      -0.000000288071
106       0.000000061644
107      -0.000000057080
108      -0.000000080397
109      -0.000000011363
110       0.000000032346
111       0.000000007832
112       0.000000072180
113       0.000000103421
114      -0.000000014147
115       0.000000035202
116       0.000000128385
117      -0.000000034556
118      -0.000000007789
119      -0.000000099495
120      -0.000000142403
121       0.000000015521
122      -0.000000037580
123      -0.000000166244
124       0.000000044862
125       0.000000006721
126       0.000000097860
127       0.000000140013
128      -0.000000014020
129       0.000000033547
130       0.000000160164
131      -0.000000043257
132      -0.000000004309
133      -0.000000075027
134      -0.000000107295
135       0.000000009632
136      -0.000000022673
137      -0.000000119805
138       0.000000032375
139       0.000000002503
140       0.000000073383
141       0.000000104859
142      -0.000000007162
143       0.000000016012
144       0.000000111156
145      -0.000000030077
146       0.000000002623
147      -0.000000038731
148      -0.000000055188
149      -0.000000001393
150       0.000000005652
151      -0.000000044956
152       0.000000012260
153      -0.000000037890
154      -0.000000389688
155      -0.000000557675
156       0.000000070216
157      -0.000000172768
158      -0.000000675184
159       0.000000182081
160       0.000000021952
161      -0.000000109674
162       0.000000211215
163      -0.000000689835
164      -0.000001551947
165      -0.000002874277
166      -0.000000007723
167      -0.000000011346
168      -0.000000044676
169      -0.000000047866
170      -0.000000068859
171      -0.000000098410
172      -0.000000632251
173      -0.000000917788
174      -0.000002319161
175      -0.000000039134
176      -0.000000017002
177      -0.000000024791
178       0.000000003546
179      -0.000000009429
180       0.000000274270
181       0.000000144299
182       0.000000209589
183      -0.000000025649
184       0.000000067785
185       0.000000012793
186       0.000000029675
187       0.000000042787
188      -0.000000010308
189       0.000000027432
190       0.000000011273
191      -0.000000002915
192       0.000000021945
193      -0.000000109642
194       0.000000211153
195      -0.000000689621
196      -0.000001551348
197      -0.000002871286
198      -0.000000007912
199       0.000000044128
200      -0.000000013171
201      -0.000000048541
202       0.000000119657
203       0.000000008566
204      -0.000000643825
205       0.000002457586
206      -0.000000401850
207       0.000000020774
208      -0.000000000686
209       0.000000016550
210       0.000000037955
211       0.000000019782
212      -0.000000172358
213       0.000000016258
214      -0.000000098585
215      -0.000000281984
216      -0.000000161294
217      -0.000000003600
218      -0.000000008884
219       0.000000036131
220      -0.000000004637
221      -0.000000001633
222       0.000000041383
223      -0.000000027081
224       0.000000021948
225      -0.000000109655
226       0.000000211179
227      -0.000000689718
228      -0.000001551614
229      -0.000002872546
230       0.000000044265
231       0.000000007486
232      -0.000000012961
233       0.000000128944
234      -0.000000004911
235       0.000000009386
236       0.000002532823
237       0.000000227947
238      -0.000000388252
239       0.000000020897
240       0.000000015390
241       0.000000004901
242      -0.000000041943
243      -0.000000009004
244      -0.000000173213
245      -0.000000094914
246      -0.000000017799
247       0.000000320609
248       0.000000055883
249      -0.000000003078
250       0.000000037094
251       0.000000003945
252       0.000000003852
253       0.000000001648
254       0.000000049437
255       0.000000002471
256      -0.000000058222
257      -0.000001168697
258      -0.000000455826
259      -0.000000062472
260       0.000000256892
261      -0.000000049878
262      -0.000000058221
263      -0.000001168625
264      -0.000000455999
265      -0.000000061199
266      -0.000000089141
267      -0.000000246305
268      -0.000000058230
269      -0.000001168674
270      -0.000000455838
271       0.000000263096
272       0.000000028226
273      -0.000000048596
 Sym=     1a
 Ene= -7.30735050926760E+02
 Spin= Alpha
 Occup= 1.000000
  1      -0.000000000002
  2      -0.000000000003
  3       0.000000000003
  4      -0.000000000017
  5       0.000000000029
  6      -0.000000000085
  7       0.000000000131
  8      -0.000000000323
  9       0.000000000366
 10      -0.000000000024
 11      -0.000000000088
 12       0.000000000627
 13      -0.000000001762
 14       0.000000003329
 15      -0.000000005638
 16       0.000000010735
 17      -0.000000026038
 18       0.000000036871
 19       0.000000000801
 20       0.000000000615
 21       0.000000000956
 22      -0.018895419509
 23       0.161911625442
 24       0.084547113572
 25      -0.031494525556
 26       0.269871215188
 27       0.140921519461
 28      -0.046834045860
 29       0.401312946952
 30       0.209557845059
 31      -0.024273903170
 32       0.207998933844
 33       0.108613012824
 34      -0.000752072490
 35       0.006444381055
 36       0.003365131152
 37      -0.000450770316
 38       0.003862573834
 39       0.002016960791
 40       0.000311815954
 41      -0.002671897823
 42      -0.001395212469
 43      -0.000194634735
 44       0.001667792230
 45       0.000870887347
 46       0.000122442938
 47      -0.001049193597
 48      -0.000547866036
 49      -0.000082542535
 50       0.000707296620
 51       0.000369332453
 52       0.000060257376
 53      -0.000516354295
 54      -0.000269623587
 55      -0.000048665160
 56       0.000417136217
 57       0.000217799048
 58       0.000004533093
 59      -0.000038837063
 60      -0.000020280238
 61       0.000000133221
 62      -0.000000323208
 63       0.000000131666
 64       0.000000059909
 65      -0.000000473464
 66       0.000001736850
 67       0.000000195870
 68       0.000001264670
 69       0.000001276888
 70       0.000000623231
 71      -0.000001507659
 72      -0.000000715755
 73      -0.000001041744
 74      -0.000001169751
 75      -0.000001382093
 76       0.000002867855
 77       0.000001073764
 78       0.000002011283
 79       0.000002192782
 80       0.000002185553
 81      -0.000005426506
 82      -0.000001953100
 83      -0.000003813860
 84      -0.000004140318
 85      -0.000004014267
 86       0.000011418816
 87       0.000004165446
 88       0.000008019645
 89       0.000008718612
 90       0.000008532792
 91      -0.000030155725
 92      -0.000010517893
 93      -0.000021228402
 94      -0.000022970560
 95      -0.000021790008
 96       0.000069725771
 97       0.000023935801
 98       0.000049124039
 99       0.000053068442
100       0.000049790265
101      -0.000143271875
102      -0.000051443698
103      -0.000100699464
104      -0.000109284243
105      -0.000105795673
106       0.000016199575
107       0.000003668501
108       0.000011607434
109       0.000012116107
110       0.000008651987
111      -0.000000873707
112       0.000000667099
113      -0.000000103516
114      -0.000000765273
115       0.000000381009
116      -0.000000448716
117      -0.000000079305
118       0.000000351638
119      -0.000000971184
120       0.000000035642
121       0.000000541471
122      -0.000000604257
123       0.000000641835
124      -0.000000294412
125       0.000000504712
126       0.000001519009
127       0.000000076005
128      -0.000000190379
129       0.000001001877
130      -0.000000990946
131       0.000000929895
132      -0.000001973125
133      -0.000003012582
134      -0.000000272147
135      -0.000000227582
136      -0.000002039298
137       0.000001953416
138      -0.000002276943
139       0.000006102302
140       0.000008588155
141       0.000000835565
142       0.000000945489
143       0.000005839297
144      -0.000005562731
145       0.000006704387
146      -0.000019337371
147      -0.000027493717
148      -0.000002651558
149      -0.000002902155
150      -0.000018683124
151       0.000017809202
152      -0.000021376283
153       0.000035453217
154       0.000046658521
155       0.000004826215
156       0.000006567491
157       0.000031850578
158      -0.000030201577
159       0.000037443868
160      -0.000001571093
161       0.000007505644
162      -0.000014658291
163       0.000049736331
164       0.000105589503
165       0.000274546096
166       0.000001622090
167       0.000003228538
168       0.000006001877
169      -0.000013495189
170      -0.000023364315
171      -0.000047018081
172       0.000008223720
173       0.000032455661
174       0.000041417715
175       0.000000315594
176       0.000000733299
177       0.000000976179
178      -0.000000554593
179      -0.000000066469
180      -0.000010746153
181      -0.000009290199
182      -0.000013101713
183       0.000002854176
184      -0.000003397848
185      -0.000001319044
186      -0.000001578551
187      -0.000001586415
188       0.000000116984
189      -0.000000971417
190       0.000000008697
191      -0.000000165353
192       0.000001777446
193      -0.000008491445
194       0.000016583392
195      -0.000056265232
196      -0.000119445947
197      -0.000310539186
198      -0.000002054484
199       0.000007627083
200      -0.000000457724
201       0.000016338434
202      -0.000058838134
203       0.000005073302
204      -0.000013858055
205       0.000057493044
206       0.000004915229
207       0.000000630120
208      -0.000000410249
209      -0.000000434923
210       0.000000968777
211       0.000000714386
212      -0.000010942991
213       0.000001875744
214      -0.000001070816
215      -0.000015856917
216      -0.000011213045
217      -0.000000853434
218      -0.000000635840
219       0.000001386460
220      -0.000000720104
221      -0.000000659581
222       0.000001755227
223      -0.000001619021
224      -0.000000206142
225       0.000000984799
226      -0.000001923227
227       0.000006524599
228       0.000013847820
229       0.000035994346
230      -0.000000915781
231       0.000000697678
232       0.000000487494
233       0.000007077886
234      -0.000002828472
235      -0.000002459001
236      -0.000006857536
237       0.000017303985
238       0.000009647428
239      -0.000000682961
240      -0.000000210724
241      -0.000000358514
242      -0.000000209723
243      -0.000000425860
244       0.000002969700
245       0.000000789840
246       0.000001006800
247      -0.000001274256
248       0.000000941014
249      -0.000000259203
250      -0.000000553293
251      -0.000000127556
252       0.000000010036
253      -0.000000276389
254       0.000000024046
255      -0.000000584905
256      -0.000004194426
257       0.000035967674
258       0.000011121558
259       0.000003063334
260      -0.000010694428
261       0.000000582475
262       0.000003706847
263      -0.000031823156
264      -0.000009838184
265      -0.000002495536
266      -0.000004535980
267      -0.000008397061
268       0.000000486902
269      -0.000004174065
270      -0.000001296275
271       0.000001291382
272      -0.000000725204
273      -0.000000521289
 Sym=     1a
 Ene= -7.30735049812112E+02
 Spin= Alpha
 Occup= 1.000000
  1       0.000000000112
  2       0.000000000091
  3       0.000000000152
  4       0.000000000255
  5       0.000000000415
  6       0.000000000478
  7       0.000000000147
  8      -0.000000001410
  9      -0.000000002383
 10       0.000000001534
 11      -0.000000000551
 12       0.000000000607
 13      -0.000000001387
 14       0.000000002351
 15      -0.000000003899
 16       0.000000006857
 17      -0.000000009038
 18       0.000000003810
 19      -0.000000000735
 20       0.000000011355
 21      -0.000000001519
 22      -0.172237450784
 23       0.012503624302
 24      -0.062438335307
 25      -0.287082104368
 26       0.020840803011
 27      -0.104071028784
 28      -0.426906460736
 29       0.030991389836
 30      -0.154759191977
 31      -0.221263950879
 32       0.016062716586
 33      -0.080211084981
 34      -0.006855368148
 35       0.000497666979
 36      -0.002485160496