[Molden Format]
[Title]
 Molden file created by orca_2mkl for BaseName=/data01/Nikolayandreadi/heavy/cations/Pa_4+

[Atoms] AU
Pa   1  91          0.0415890928         1.5388172189        -3.6027401976 
[GTO]
  1 0
s   9 1.0 
 57631858.1725339964     15318.1146839455
 26196299.1693340018     -5565.0020035622
 11907408.7133339997      8721.7488303571
  5412458.5060609998       341.2948940372
  2460208.4118459998      4085.4543694394
  1118276.5508389999      1905.4034809116
   508307.5231090000      2611.4146297113
   231048.8741400000      1976.6043094082
   105022.2155180000      2031.4725197545
s   1 1.0 
    47737.3706900000      2301.7278018772
s   1 1.0 
    21698.8048590000      1274.1980990770
s   1 1.0 
     9863.0931180000       705.3748034003
s   1 1.0 
     4483.2241440000       390.4837195855
s   1 1.0 
     2037.8291570000       216.1652706843
s   1 1.0 
      926.2859800000       119.6654863652
s   1 1.0 
      421.0390820000        66.2448162538
s   1 1.0 
      191.3814010000        36.6720247745
s   1 1.0 
       86.9915460000        20.3010209355
s   1 1.0 
       39.5416120000        11.2383064381
s   1 1.0 
       17.9734600000         6.2213388954
s   1 1.0 
        8.1697540000         3.4440292161
s   1 1.0 
        3.7135250000         1.9065572739
s   1 1.0 
        1.6879660000         1.0554383322
s   1 1.0 
        0.7672570000         0.5842728914
s   1 1.0 
        0.3487530000         0.3234435957
s   1 1.0 
        0.1585240000         0.1790528998
s   1 1.0 
        0.0720560000         0.0991203221
s   1 1.0 
        0.0327530000         0.0548716988
s   1 1.0 
        0.0148880000         0.0303764741
p   8 1.0 
   820588.6600690000    117960.8380814268
   341911.9416950000     10293.3338078988
   142463.3090400000     34535.2725490902
    59359.7121000000     17348.6583204729
    24733.2133750000     16831.7677005322
    10305.5055730000     13674.5392108057
     4293.9606550000     12899.6246819168
     1789.1502730000     11789.0634615762
p   1 1.0 
      745.4792800000      5552.4487579542
p   1 1.0 
      310.6163670000      1858.7479720243
p   1 1.0 
      129.4234860000       622.2378919893
p   1 1.0 
       53.9264530000       208.3015048177
p   1 1.0 
       22.4693550000        69.7313936668
p   1 1.0 
        9.3622310000        23.3434089560
p   1 1.0 
        3.9009300000         7.8144836060
p   1 1.0 
        1.6253870000         2.6159899143
p   1 1.0 
        0.6772450000         0.8757342738
p   1 1.0 
        0.2821850000         0.2931618768
p   1 1.0 
        0.1175770000         0.0981393227
p   1 1.0 
        0.0489910000         0.0328537894
d   7 1.0 
    39984.8312080000     49820.8214421646
    15993.9324830000     24763.2125679906
     6397.5729930000     27687.8895786202
     2559.0291970000     25715.0680190714
     1023.6116790000     27614.8741414884
      409.4446720000     25104.2866847335
      163.7778690000     17021.7824315036
d   1 1.0 
       65.5111470000      4300.5271063730
d   1 1.0 
       26.2044590000       865.2202593661
d   1 1.0 
       10.4817840000       174.0731121316
d   1 1.0 
        4.1927130000        35.0216472939
d   1 1.0 
        1.6770850000         7.0459809407
d   1 1.0 
        0.6708340000         1.4175763168
d   1 1.0 
        0.2683340000         0.2852020000
d   1 1.0 
        0.1073330000         0.0573790433
d   1 1.0 
        0.0429330000         0.0115439582
f   6 1.0 
     4212.3892570000     53509.6197850903
     1620.1497140000     46215.8871057453
      623.1345050000     51850.9767921649
      239.6671170000     50432.9890340126
       92.1796610000     36159.3884368328
       35.4537160000     14379.0722744372
f   1 1.0 
       13.6360440000      2037.2717616429
f   1 1.0 
        5.2446320000       237.3334078456
f   1 1.0 
        2.0171660000        27.6483213038
f   1 1.0 
        0.7758330000         3.2209103577
f   1 1.0 
        0.2983970000         0.3752213982
f   1 1.0 
        0.1147680000         0.0437116207

[5D]
[7F]
[9G]
[MO]
 Sym=     1a
 Ene= -4.15097645524486E+03
 Spin= Alpha
 Occup= 1.000000
  1       0.082736414666
  2       0.064032702178
  3       0.110205863678
  4       0.176314962008
  5       0.264167161948
  6       0.304987766374
  7       0.195137441041
  8       0.032838461970
  9       0.000846594121
 10      -0.000590746318
 11       0.000432780125
 12      -0.000322788784
 13       0.000230070643
 14      -0.000154733041
 15       0.000102304658
 16      -0.000067292095
 17       0.000043406601
 18      -0.000026846843
 19       0.000015169905
 20      -0.000006947666
 21       0.000001871630
 22      -0.000000000000
 23       0.000000000000
 24       0.000000000000
 25       0.000000000000
 26      -0.000000000000
 27      -0.000000000000
 28      -0.000000000002
 29       0.000000000000
 30       0.000000000003
 31       0.000000000002
 32      -0.000000000000
 33      -0.000000000004
 34      -0.000000000001
 35       0.000000000000
 36       0.000000000003
 37       0.000000000001
 38      -0.000000000000
 39      -0.000000000002
 40      -0.000000000000
 41       0.000000000000
 42       0.000000000001
 43       0.000000000000
 44      -0.000000000001
 45      -0.000000000001
 46      -0.000000000000
 47       0.000000000001
 48       0.000000000000
 49       0.000000000000
 50      -0.000000000000
 51      -0.000000000000
 52      -0.000000000000
 53       0.000000000000
 54       0.000000000000
 55       0.000000000000
 56      -0.000000000000
 57      -0.000000000000
 58      -0.000000000000
 59       0.000000000000
 60       0.000000000000
 61      -0.000000030211
 62      -0.000000007704
 63       0.000000012382
 64      -0.000000024078
 65      -0.000000048689
 66       0.000000023867
 67       0.000000006087
 68      -0.000000009783
 69       0.000000019024
 70       0.000000038467
 71      -0.000000015847
 72      -0.000000004041
 73       0.000000006496
 74      -0.000000012630
 75      -0.000000025540
 76       0.000000009116
 77       0.000000002325
 78      -0.000000003736
 79       0.000000007265
 80       0.000000014691
 81      -0.000000004849
 82      -0.000000001237
 83       0.000000001988
 84      -0.000000003865
 85      -0.000000007815
 86       0.000000002798
 87       0.000000000714
 88      -0.000000001147
 89       0.000000002231
 90       0.000000004510
 91      -0.000000001648
 92      -0.000000000420
 93       0.000000000675
 94      -0.000000001314
 95      -0.000000002656
 96       0.000000000847
 97       0.000000000216
 98      -0.000000000347
 99       0.000000000676
100       0.000000001366
101      -0.000000000406
102      -0.000000000104
103       0.000000000167
104      -0.000000000324
105      -0.000000000655
106       0.000000000137
107       0.000000000035
108      -0.000000000056
109       0.000000000109
110       0.000000000221
111       0.000000000000
112      -0.000000000000
113       0.000000000000
114      -0.000000000000
115       0.000000000000
116      -0.000000000000
117      -0.000000000000
118      -0.000000000000
119       0.000000000000
120      -0.000000000000
121       0.000000000000
122      -0.000000000000
123       0.000000000000
124       0.000000000000
125       0.000000000000
126      -0.000000000000
127       0.000000000000
128      -0.000000000000
129       0.000000000000
130      -0.000000000000
131       0.000000000000
132      -0.000000000000
133       0.000000000000
134      -0.000000000000
135       0.000000000000
136      -0.000000000000
137       0.000000000000
138      -0.000000000000
139       0.000000000000
140      -0.000000000000
141       0.000000000000
142       0.000000000000
143       0.000000000000
144      -0.000000000000
145      -0.000000000000
146      -0.000000000000
147      -0.000000000000
148      -0.000000000000
149      -0.000000000000
150      -0.000000000000
151       0.000000000000
152       0.000000000000
153       0.000000000000
154       0.000000000000
155       0.000000000000
156       0.000000000000
157       0.000000000000
158      -0.000000000000
159      -0.000000000000
 Sym=     1a
 Ene= -7.81577991763034E+02
 Spin= Alpha
 Occup= 1.000000
  1      -0.034737979939
  2      -0.029020565420
  3      -0.048844529443
  4      -0.085593855203
  5      -0.138058750998
  6      -0.178936899476
  7      -0.077158335985
  8       0.363386673531
  9       0.614620366085
 10       0.174677302209
 11      -0.002207996289
 12       0.002021457770
 13      -0.001115522203
 14       0.000595851175
 15      -0.000341198584
 16       0.000215264269
 17      -0.000136688030
 18       0.000083539345
 19      -0.000047012162
 20       0.000021490965
 21      -0.000005784626
 22      -0.000000000015
 23       0.000000000000
 24       0.000000000020
 25      -0.000000000019
 26       0.000000000001
 27       0.000000000024
 28      -0.000000000060
 29       0.000000000001
 30       0.000000000089
 31       0.000000000011
 32       0.000000000000
 33      -0.000000000033
 34      -0.000000000013
 35       0.000000000001
 36       0.000000000032
 37       0.000000000007
 38      -0.000000000002
 39      -0.000000000019
 40      -0.000000000004
 41       0.000000000004
 42       0.000000000011
 43       0.000000000003
 44      -0.000000000013
 45      -0.000000000009
 46      -0.000000000002
 47       0.000000000013
 48       0.000000000006
 49       0.000000000002
 50      -0.000000000007
 51      -0.000000000004
 52      -0.000000000001
 53       0.000000000003
 54       0.000000000002
 55       0.000000000001
 56      -0.000000000001
 57      -0.000000000001
 58      -0.000000000000
 59       0.000000000000
 60       0.000000000000
 61      -0.000002101970
 62      -0.000000536081
 63       0.000000861545
 64      -0.000001675350
 65      -0.000003387694
 66      -0.000000354698
 67      -0.000000090489
 68       0.000000145387
 69      -0.000000282743
 70      -0.000000571730
 71       0.000000233310
 72       0.000000059513
 73      -0.000000095624
 74       0.000000185971
 75       0.000000376033
 76      -0.000000083573
 77      -0.000000021326
 78       0.000000034252
 79      -0.000000066626
 80      -0.000000134709
 81       0.000000027831
 82       0.000000007105
 83      -0.000000011406
 84       0.000000022190
 85       0.000000044866
 86      -0.000000021970
 87      -0.000000005604
 88       0.000000009004
 89      -0.000000017500
 90      -0.000000035408
 91       0.000000014195
 92       0.000000003621
 93      -0.000000005818
 94       0.000000011305
 95       0.000000022880
 96      -0.000000006914
 97      -0.000000001763
 98       0.000000002834
 99      -0.000000005505
100      -0.000000011143
101       0.000000003297
102       0.000000000841
103      -0.000000001352
104       0.000000002625
105       0.000000005314
106      -0.000000001111
107      -0.000000000283
108       0.000000000455
109      -0.000000000885
110      -0.000000001791
111       0.000000000002
112      -0.000000000003
113       0.000000000004
114      -0.000000000000
115       0.000000000005
116      -0.000000000003
117       0.000000000001
118      -0.000000000002
119       0.000000000002
120      -0.000000000002
121       0.000000000000
122      -0.000000000004
123       0.000000000002
124      -0.000000000001
125       0.000000000001
126      -0.000000000001
127       0.000000000001
128      -0.000000000000
129       0.000000000002
130      -0.000000000001
131      -0.000000000000
132      -0.000000000001
133       0.000000000001
134      -0.000000000001
135      -0.000000000000
136      -0.000000000001
137       0.000000000001
138       0.000000000001
139       0.000000000000
140      -0.000000000000
141       0.000000000000
142      -0.000000000000
143       0.000000000001
144      -0.000000000000
145      -0.000000000000
146      -0.000000000000
147       0.000000000000
148      -0.000000000000
149       0.000000000000
150      -0.000000000000
151       0.000000000000
152       0.000000000002
153       0.000000000000
154      -0.000000000000
155      -0.000000000000
156      -0.000000000000
157       0.000000000000
158      -0.000000000000
159      -0.000000000001
 Sym=     1a
 Ene= -6.58267549264157E+02
 Spin= Alpha
 Occup= 1.000000
  1      -0.000000000002
  2      -0.000000000002
  3      -0.000000000003
  4      -0.000000000005
  5      -0.000000000009
  6      -0.000000000011
  7      -0.000000000007
  8       0.000000000032
  9       0.000000000027
 10       0.000000000054
 11      -0.000000000134
 12       0.000000000185
 13      -0.000000000171
 14       0.000000000129
 15      -0.000000000085
 16       0.000000000050
 17      -0.000000000029
 18       0.000000000018
 19      -0.000000000009
 20       0.000000000004
 21      -0.000000000001
 22       0.092228516801
 23      -0.148495974185
 24      -0.023474204215
 25       0.158085036937
 26      -0.254530728440
 27      -0.040236150043
 28       0.239255073011
 29      -0.385221581981
 30      -0.060895725509
 31       0.126449226953
 32      -0.203594308929
 33      -0.032184134355
 34       0.004350470236
 35      -0.007004637385
 36      -0.001107291228
 37       0.002290838525
 38      -0.003688450270
 39      -0.000583069234
 40      -0.001587536057
 41       0.002556071820
 42       0.000404063150
 43       0.000974442769
 44      -0.001568938034
 45      -0.000248017305
 46      -0.000585323110
 47       0.000942421369
 48       0.000148977718
 49       0.000346845205
 50      -0.000558451098
 51      -0.000088279800
 52      -0.000193923355
 53       0.000312233552
 54       0.000049357796
 55       0.000093744355
 56      -0.000150936606
 57      -0.000023860018
 58      -0.000029344938
 59       0.000047247914
 60       0.000007468938
 61      -0.000000000001
 62       0.000000000002
 63       0.000000000001
 64      -0.000000000001
 65       0.000000000002
 66       0.000000000001
 67       0.000000000013
 68      -0.000000000005
 69       0.000000000000
 70      -0.000000000000
 71       0.000000000000
 72      -0.000000000011
 73       0.000000000002
 74      -0.000000000001
 75       0.000000000004
 76      -0.000000000001
 77       0.000000000006
 78      -0.000000000000
 79       0.000000000001
 80      -0.000000000004
 81       0.000000000001
 82      -0.000000000003
 83       0.000000000000
 84      -0.000000000000
 85       0.000000000002
 86      -0.000000000000
 87       0.000000000002
 88      -0.000000000000
 89      -0.000000000002
 90      -0.000000000001
 91       0.000000000000
 92      -0.000000000001
 93       0.000000000000
 94       0.000000000002
 95       0.000000000000
 96      -0.000000000000
 97       0.000000000000
 98      -0.000000000000
 99      -0.000000000001
100      -0.000000000000
101       0.000000000000
102      -0.000000000000
103       0.000000000000
104       0.000000000002
105      -0.000000000000
106      -0.000000000000
107       0.000000000000
108      -0.000000000000
109      -0.000000000001
110       0.000000000000
111       0.000000425464
112      -0.000000640838
113       0.000001032026
114       0.000000246123
115       0.000000498753
116       0.000001683449
117       0.000000162949
118      -0.000000268896
119       0.000000405030
120      -0.000000652212
121      -0.000000155611
122      -0.000000315122
123      -0.000001063693
124      -0.000000102973
125       0.000000153848
126      -0.000000231745
127       0.000000373152
128       0.000000089047
129       0.000000180268
130       0.000000608517
131       0.000000058912
132      -0.000000080169
133       0.000000120760
134      -0.000000194452
135      -0.000000046394
136      -0.000000093949
137      -0.000000317128
138      -0.000000030700
139       0.000000039435
140      -0.000000059402
141       0.000000095651
142       0.000000022823
143       0.000000046212
144       0.000000155990
145       0.000000015101
146      -0.000000018215
147       0.000000027437
148      -0.000000044181
149      -0.000000010542
150      -0.000000021345
151      -0.000000072052
152      -0.000000006975
153       0.000000006323
154      -0.000000009525
155       0.000000015337
156       0.000000003659
157       0.000000007410
158       0.000000025013
159       0.000000002421
 Sym=     1a
 Ene= -6.58264218779001E+02
 Spin= Alpha
 Occup= 1.000000
  1       0.000000000004
  2       0.000000000004
  3       0.000000000006
  4       0.000000000010
  5       0.000000000019
  6       0.000000000019
  7       0.000000000017
  8      -0.000000000067
  9      -0.000000000048
 10      -0.000000000120
 11       0.000000000296
 12      -0.000000000404
 13       0.000000000342
 14      -0.000000000234
 15       0.000000000141
 16      -0.000000000075
 17       0.000000000040
 18      -0.000000000025
 19       0.000000000015
 20      -0.000000000006
 21       0.000000000002
 22      -0.034714510951
 23      -0.047830258458
 24       0.166179561749
 25      -0.059502731144
 26      -0.081983900435
 27       0.284841627119
 28      -0.090054779721
 29      -0.124079045671
 30       0.431095337882
 31      -0.047593932126
 32      -0.065575749493
 33       0.227833795273
 34      -0.001637330379
 35      -0.002255942366
 36       0.007837957114
 37      -0.000862542447
 38      -0.001188426007
 39       0.004129020389
 40       0.000597590791
 41       0.000823371002
 42      -0.002860687697
 43      -0.000366767408
 44      -0.000505338524
 45       0.001755728214
 46       0.000220337313
 47       0.000303584589
 48      -0.001054762303
 49      -0.000130564390
 50      -0.000179893891
 51       0.000625016228
 52       0.000072998948
 53       0.000100579223
 54      -0.000349448477
 55      -0.000035288568
 56      -0.000048621204
 57       0.000168927588
 58       0.000011046461
 59       0.000015220006
 60      -0.000052879787
 61       0.000000000001
 62      -0.000000000004
 63       0.000000000001
 64       0.000000000002
 65       0.000000000000
 66      -0.000000000001
 67      -0.000000000004
 68       0.000000000000
 69      -0.000000000001
 70       0.000000000000
 71      -0.000000000003
 72       0.000000000005
 73       0.000000000004
 74       0.000000000001
 75      -0.000000000009
 76       0.000000000004
 77      -0.000000000003
 78      -0.000000000004
 79      -0.000000000002
 80       0.000000000009
 81      -0.000000000002
 82       0.000000000002
 83       0.000000000003
 84       0.000000000001
 85      -0.000000000006
 86       0.000000000001
 87      -0.000000000001
 88      -0.000000000003
 89       0.000000000001
 90       0.000000000003
 91      -0.000000000000
 92       0.000000000000
 93       0.000000000002
 94      -0.000000000001
 95      -0.000000000002
 96      -0.000000000000
 97       0.000000000000
 98      -0.000000000001
 99       0.000000000001
100       0.000000000001
101       0.000000000000
102      -0.000000000000
103       0.000000000001
104      -0.000000000001
105      -0.000000000000
106      -0.000000000000
107       0.000000000000
108      -0.000000000000
109       0.000000000000
110       0.000000000000
111      -0.000000695832
112      -0.000000157786
113       0.000000430901
114      -0.000000336935
115      -0.000000874463
116       0.000000196102
117      -0.000000373377
118       0.000000582399
119       0.000000132166
120      -0.000000360673
121       0.000000282188
122       0.000000732263
123      -0.000000164230
124       0.000000312635
125      -0.000000362629
126      -0.000000082305
127       0.000000224572
128      -0.000000175733
129      -0.000000455994
130       0.000000102274
131      -0.000000194681
132       0.000000169240
133       0.000000038401
134      -0.000000104806
135       0.000000081998
136       0.000000212779
137      -0.000000047722
138       0.000000090846
139      -0.000000086713
140      -0.000000019677
141       0.000000053699
142      -0.000000042017
143      -0.000000109027
144       0.000000024453
145      -0.000000046548
146       0.000000039910
147       0.000000009056
148      -0.000000024715
149       0.000000019338
150       0.000000050180
151      -0.000000011254
152       0.000000021424
153      -0.000000013860
154      -0.000000003145
155       0.000000008582
156      -0.000000006716
157      -0.000000017427
158       0.000000003909
159      -0.000000007440
 Sym=     1a
 Ene= -6.58264217527371E+02
 Spin= Alpha
 Occup= 1.000000
  1      -0.000000000001
  2      -0.000000000001
  3      -0.000000000002
  4      -0.000000000003
  5      -0.000000000005
  6      -0.000000000006
  7      -0.000000000004
  8       0.000000000018
  9       0.000000000016
 10       0.000000000030
 11      -0.000000000072
 12       0.000000000102
 13      -0.000000000111
 14       0.000000000096
 15      -0.000000000070
 16       0.000000000045
 17      -0.000000000027
 18       0.000000000016
 19      -0.000000000008
 20       0.000000000004
 21      -0.000000000001
 22       0.146277828145
 23       0.082276893230
 24       0.054238248315
 25       0.250728875158
 26       0.141027475954
 27       0.092967575220
 28       0.379467180439
 29       0.213438913369
 30       0.140702356740
 31       0.200548323079
 32       0.112802419722
 33       0.074361165241
 34       0.006899279797
 35       0.003880638060
 36       0.002558178880
 37       0.003634527651
 38       0.002044312847
 39       0.001347643837
 40      -0.002518090634
 41      -0.001416350495
 42      -0.000933680978
 43       0.001545461457
 44       0.000869275743
 45       0.000573040520
 46      -0.000928443565
 47      -0.000522221676
 48      -0.000344256909
 49       0.000550164043
 50       0.000309450783
 51       0.000203994922
 52      -0.000307598390
 53      -0.000173014874
 54      -0.000114054181
 55       0.000148696753
 56       0.000083637466
 57       0.000055135159
 58      -0.000046546883
 59      -0.000026181226
 60      -0.000017259084
 61      -0.000000000001
 62       0.000000000002
 63       0.000000000003
 64      -0.000000000001
 65       0.000000000002
 66       0.000000000002
 67       0.000000000021
 68      -0.000000000009
 69       0.000000000000
 70      -0.000000000001
 71      -0.000000000001
 72      -0.000000000017
 73       0.000000000006
 74      -0.000000000001
 75       0.000000000002
 76       0.000000000000
 77       0.000000000010
 78      -0.000000000003
 79       0.000000000001
 80      -0.000000000002
 81       0.000000000000
 82      -0.000000000005
 83       0.000000000002
 84      -0.000000000000
 85       0.000000000001
 86      -0.000000000000
 87       0.000000000003
 88      -0.000000000002
 89      -0.000000000003
 90      -0.000000000000
 91       0.000000000000
 92      -0.000000000002
 93       0.000000000002
 94       0.000000000003
 95      -0.000000000001
 96      -0.000000000001
 97       0.000000000001
 98      -0.000000000001
 99      -0.000000000002
100       0.000000000000
101       0.000000000000
102      -0.000000000000
103       0.000000000001
104       0.000000000002
105      -0.000000000000
106      -0.000000000000
107       0.000000000000
108      -0.000000000000
109      -0.000000000001
110       0.000000000000
111      -0.000000226648
112      -0.000000320257
113      -0.000000026420
114      -0.000000370133
115      -0.000000157059
116      -0.000000063528
117       0.000001195717
118       0.000000189914
119       0.000000268445
120       0.000000022228
121       0.000000310037
122       0.000000131456
123       0.000000053220
124      -0.000001001423
125      -0.000000118278
126      -0.000000167226
127      -0.000000013847
128      -0.000000193074
129      -0.000000081856
130      -0.000000033149
131       0.000000623633
132       0.000000055179
133       0.000000078011
134       0.000000006449
135       0.000000090082
136       0.000000038204
137       0.000000015467
138      -0.000000290989
139      -0.000000028276
140      -0.000000039977
141      -0.000000003307
142      -0.000000046159
143      -0.000000019574
144      -0.000000007925
145       0.000000149104
146       0.000000013014
147       0.000000018399
148       0.000000001523
149       0.000000021245
150       0.000000009009
151       0.000000003647
152      -0.000000068625
153      -0.000000004519
154      -0.000000006390
155      -0.000000000530
156      -0.000000007379
157      -0.000000003129
158      -0.000000001266
159       0.000000023832
 Sym=     1a
 Ene= -2.00818068616461E+02
 Spin= Alpha
 Occup= 1.000000
  1      -0.016990265815
  2      -0.014406440918
  3      -0.024027044918
  4      -0.043248400670
  5      -0.069604924493
  6      -0.094970828769
  7      -0.029609810550
  8       0.288734957899
  9       0.693971128377
 10      -0.181210684545
 11      -0.992309624590
 12      -0.147565782299
 13      -0.018575608027
 14       0.014243943164
 15      -0.010118361877
 16       0.006961996586
 17      -0.004586101403
 18       0.002862144122
 19      -0.001624837541
 20       0.000745772101
 21      -0.000201099578
 22      -0.000000000001
 23       0.000000000001
 24      -0.000000000003
 25      -0.000000000002
 26       0.000000000003
 27      -0.000000000003
 28      -0.000000000001
 29       0.000000000004
 30      -0.000000000021
 31       0.000000000007
 32      -0.000000000000
 33       0.000000000029
 34      -0.000000000029
 35      -0.000000000012
 36       0.000000000014
 37       0.000000000015
 38      -0.000000000003
 39       0.000000000011
 40      -0.000000000009
 41      -0.000000000003
 42      -0.000000000005
 43       0.000000000008
 44       0.000000000010
 45       0.000000000007
 46      -0.000000000009
 47      -0.000000000019
 48      -0.000000000011
 49       0.000000000005
 50       0.000000000010
 51       0.000000000013
 52      -0.000000000002
 53      -0.000000000005
 54      -0.000000000010
 55       0.000000000001
 56       0.000000000002
 57       0.000000000006
 58      -0.000000000000
 59      -0.000000000001
 60      -0.000000000002
 61       0.000014261811
 62       0.000003637493
 63      -0.000005845621
 64       0.000011367463
 65       0.000022985954
 66       0.000031474731
 67       0.000008027551
 68      -0.000012900792
 69       0.000025086994
 70       0.000050727915
 71       0.000012790303
 72       0.000003261784
 73      -0.000005242440
 74       0.000010194065
 75       0.000020613427
 76      -0.000000593898
 77      -0.000000151417
 78       0.000000243452
 79      -0.000000473287
 80      -0.000000957157
 81       0.000001126491
 82       0.000000287305
 83      -0.000000461742
 84       0.000000897866
 85       0.000001815618
 86      -0.000000334692
 87      -0.000000085340
 88       0.000000137185
 89      -0.000000266763
 90      -0.000000539399
 91       0.000000265307
 92       0.000000067676
 93      -0.000000108745
 94       0.000000211500
 95       0.000000427630
 96      -0.000000124832
 97      -0.000000031848
 98       0.000000051164
 99      -0.000000099524
100      -0.000000201219
101       0.000000059384
102       0.000000015155
103      -0.000000024338
104       0.000000047351
105       0.000000095732
106      -0.000000019964
107      -0.000000005096
108       0.000000008182
109      -0.000000015921
110      -0.000000032187
111      -0.000000000001
112       0.000000000015
113      -0.000000000005
114      -0.000000000017
115      -0.000000000026
116      -0.000000000006
117       0.000000000001
118       0.000000000009
119      -0.000000000005
120      -0.000000000001
121       0.000000000013
122       0.000000000016
123       0.000000000003
124      -0.000000000001
125      -0.000000000005
126       0.000000000003
127       0.000000000001
128      -0.000000000008
129      -0.000000000009
130      -0.000000000002
131      -0.000000000000
132       0.000000000002
133      -0.000000000002
134      -0.000000000000
135       0.000000000004
136       0.000000000005
137       0.000000000001
138      -0.000000000001
139      -0.000000000001
140       0.000000000001
141      -0.000000000000
142      -0.000000000002
143      -0.000000000003
144      -0.000000000001
145       0.000000000007
146       0.000000000001
147      -0.000000000001
148      -0.000000000000
149       0.000000000000
150       0.000000000002
151       0.000000000000
152      -0.000000000033
153      -0.000000000001
154       0.000000000000
155       0.000000000000
156      -0.000000000000
157      -0.000000000001
158       0.000000000000
159       0.000000000014
 Sym=     1a
 Ene= -1.65801595941034E+02
 Spin= Alpha
 Occup= 1.000000
  1      -0.000000000001
  2      -0.000000000001
  3      -0.000000000001
  4      -0.000000000002
  5      -0.000000000004
  6      -0.000000000002
  7      -0.000000000006
  8       0.000000000023
  9       0.000000000001
 10       0.000000000066
 11      -0.000000000266
 12       0.000000000372
 13      -0.000000000290
 14       0.000000000192
 15      -0.000000000102
 16       0.000000000033
 17      -0.000000000011
 18       0.000000000021
 19      -0.000000000023
 20       0.000000000013
 21      -0.000000000004
 22       0.051424993218
 23      -0.082798820285
 24      -0.013088820807
 25       0.094700848865
 26      -0.152476803113
 27      -0.024103502274
 28       0.146205601790
 29      -0.235404043635
 30      -0.037212623735
 31      -0.060881475846
 32       0.098024599757
 33       0.015495708964
 34      -0.387726256711
 35       0.624273813931
 36       0.098685078628
 37      -0.135613420068
 38       0.218349687487
 39       0.034516674378
 40       0.004031142950
 41      -0.006490499270
 42      -0.001026016787
 43      -0.003316996823
 44       0.005340660381
 45       0.000844250515
 46       0.001899487954
 47      -0.003058344826
 48      -0.000483462527
 49      -0.001071135151
 50       0.001724623019
 51       0.000272628057
 52       0.000591539585
 53      -0.000952431426
 54      -0.000150560170
 55      -0.000284992644
 56       0.000458863528
 57       0.000072537066
 58       0.000089110794
 59      -0.000143476308
 60      -0.000022680715
 61      -0.000000000003
 62      -0.000000000049
 63       0.000000000009
 64      -0.000000000006