[Molden Format]
[Title]
 Molden file created by orca_2mkl for BaseName=/data01/nikolayandreadi/sCC/H2SO4

[Atoms] AU
O    1   8         -1.2666172872         0.8133853712        -0.7283325774 
S    2  16          0.9951260027         2.5603804902         0.1785640018 
O    3   8          3.1045573661         0.5446039540         0.8691228435 
O    4   8          1.7734871897         3.9107617780        -2.0060727925 
O    5   8          0.3179653193         3.7102051434         2.5069503735 
H    6   1         -2.1561378346         0.2165399382         0.7643753239 
H    7   1          3.9500113898         0.0527743817        -0.6861765668 
[GTO]
  1 0
s   6 1.0 
    27032.3826310000         1.4645050749
     4052.3871392000         1.8244031008
      922.3272271000         2.8547160967
      261.2407098900         4.3654874290
       85.3546413500         5.8940772662
       31.0350352400         6.2963020147
s   1 1.0 
       12.2608607300         4.6698272139
s   1 1.0 
        4.9987076000         2.3826123703
s   1 1.0 
        1.1703108200         0.8019291632
s   1 1.0 
        0.4647474100        -0.4011648063
s   1 1.0 
        0.1850453600         0.2010799377
p   4 1.0 
       63.2749548000         3.0898340730
       14.6270493800         3.3923831935
        4.4501223500         2.9482801524
        1.5275799600         1.7113350234
p   1 1.0 
        0.5293511800         0.6436057935
p   1 1.0 
        0.1747842100         0.1610897223
d   1 1.0 
        2.3140000000        12.3767310624
d   1 1.0 
        0.6450000000         1.3234257612
f   1 1.0 
        1.4280000000        12.7097950062

  2 0
s   7 1.0 
    60700.9281040000         3.5616890827
     9102.6106854000         3.7555593886
     2071.4166009000         5.2896835066
      586.0247682100         7.5887404068
      190.5539502100         9.0996945846
       67.6303842600         7.4897057705
       25.1273069100         2.6585694631
s   1 1.0 
      112.5746301000        24.6314789326
s   1 1.0 
       34.7955542200        10.2106387433
s   1 1.0 
        6.5115556200         2.9051840968
s   1 1.0 
        3.2399032300        -1.7211119553
s   1 1.0 
        1.5477160900         0.9889596337
s   1 1.0 
        0.4054103000        -0.3621022105
s   1 1.0 
        0.1455065100         0.1679082017
p   6 1.0 
      564.3671602700        11.0192682179
      133.4262437900        13.4773632333
       42.4682711900        14.4983567770
       15.6165275800        11.7633044416
        6.1093988500         6.1278327462
        2.4404160200         1.5618594725
p   1 1.0 
        0.8388220100         1.1442669642
p   1 1.0 
        0.3128874700        -0.3335610270
p   1 1.0 
        0.1077010900         0.0879458217
d   2 1.0 
        3.7560000000         5.2825000452
        0.8120000000         1.8103510309
d   1 1.0 
        0.2730000000         0.2939373103
f   1 1.0 
        0.5570000000         1.5281791442

  3 0
s   6 1.0 
    27032.3826310000         1.4645050749
     4052.3871392000         1.8244031008
      922.3272271000         2.8547160967
      261.2407098900         4.3654874290
       85.3546413500         5.8940772662
       31.0350352400         6.2963020147
s   1 1.0 
       12.2608607300         4.6698272139
s   1 1.0 
        4.9987076000         2.3826123703
s   1 1.0 
        1.1703108200         0.8019291632
s   1 1.0 
        0.4647474100        -0.4011648063
s   1 1.0 
        0.1850453600         0.2010799377
p   4 1.0 
       63.2749548000         3.0898340730
       14.6270493800         3.3923831935
        4.4501223500         2.9482801524
        1.5275799600         1.7113350234
p   1 1.0 
        0.5293511800         0.6436057935
p   1 1.0 
        0.1747842100         0.1610897223
d   1 1.0 
        2.3140000000        12.3767310624
d   1 1.0 
        0.6450000000         1.3234257612
f   1 1.0 
        1.4280000000        12.7097950062

  4 0
s   6 1.0 
    27032.3826310000         1.4645050749
     4052.3871392000         1.8244031008
      922.3272271000         2.8547160967
      261.2407098900         4.3654874290
       85.3546413500         5.8940772662
       31.0350352400         6.2963020147
s   1 1.0 
       12.2608607300         4.6698272139
s   1 1.0 
        4.9987076000         2.3826123703
s   1 1.0 
        1.1703108200         0.8019291632
s   1 1.0 
        0.4647474100        -0.4011648063
s   1 1.0 
        0.1850453600         0.2010799377
p   4 1.0 
       63.2749548000         3.0898340730
       14.6270493800         3.3923831935
        4.4501223500         2.9482801524
        1.5275799600         1.7113350234
p   1 1.0 
        0.5293511800         0.6436057935
p   1 1.0 
        0.1747842100         0.1610897223
d   1 1.0 
        2.3140000000        12.3767310624
d   1 1.0 
        0.6450000000         1.3234257612
f   1 1.0 
        1.4280000000        12.7097950062

  5 0
s   6 1.0 
    27032.3826310000         1.4645050749
     4052.3871392000         1.8244031008
      922.3272271000         2.8547160967
      261.2407098900         4.3654874290
       85.3546413500         5.8940772662
       31.0350352400         6.2963020147
s   1 1.0 
       12.2608607300         4.6698272139
s   1 1.0 
        4.9987076000         2.3826123703
s   1 1.0 
        1.1703108200         0.8019291632
s   1 1.0 
        0.4647474100        -0.4011648063
s   1 1.0 
        0.1850453600         0.2010799377
p   4 1.0 
       63.2749548000         3.0898340730
       14.6270493800         3.3923831935
        4.4501223500         2.9482801524
        1.5275799600         1.7113350234
p   1 1.0 
        0.5293511800         0.6436057935
p   1 1.0 
        0.1747842100         0.1610897223
d   1 1.0 
        2.3140000000        12.3767310624
d   1 1.0 
        0.6450000000         1.3234257612
f   1 1.0 
        1.4280000000        12.7097950062

  6 0
s   3 1.0 
       34.0613410000         0.2556300129
        5.1235746000         0.4613599287
        1.1646626000         0.6811215012
s   1 1.0 
        0.3272304100         0.3083545312
s   1 1.0 
        0.1030724100         0.1296483265
p   1 1.0 
        0.8000000000         1.0784563492

  7 0
s   3 1.0 
       34.0613410000         0.2556300129
        5.1235746000         0.4613599287
        1.1646626000         0.6811215012
s   1 1.0 
        0.3272304100         0.3083545312
s   1 1.0 
        0.1030724100         0.1296483265
p   1 1.0 
        0.8000000000         1.0784563492

[5D]
[9G]
[MO]
 Sym=     1a
 Ene= -9.25446066141849E+01
 Spin= Alpha
 Occup= 2.000000
  1       0.000007954412
  2      -0.000047022493
  3       0.000105292416
  4      -0.000404649715
  5      -0.000682179208
  6      -0.000338836939
  7      -0.000082124384
  8      -0.000061637559
  9      -0.000026099718
 10       0.000389233417
 11       0.000287659279
 12       0.000129733604
 13      -0.000097149412
 14      -0.000026994236
 15      -0.000045941117
 16       0.000011975179
 17      -0.000016631726
 18      -0.000013116967
 19      -0.000005006990
 20      -0.000028816002
 21      -0.000111880210
 22       0.000136621345
 23       0.000105138461
 24       0.000056491387
 25       0.000245054005
 26      -0.000038029044
 27      -0.000022054670
 28      -0.000012289827
 29       0.000013751110
 30       0.000043699499
 31       0.000030000448
 32      -0.000062274906
 33       0.942169320805
 34       0.013261615898
 35       0.028991862029
 36       0.048921437095
 37       0.024979776152
 38       0.011459970758
 39       0.004583176626
 40       0.000295707813
 41      -0.000001214346
 42      -0.000030002165
 43      -0.000001724984
 44       0.000000185300
 45       0.000004578103
 46       0.000000263613
 47       0.000017689285
 48       0.000436956990
 49       0.000025119659
 50      -0.000015268030
 51      -0.000377146795
 52      -0.000021682986
 53      -0.000149741283
 54       0.000099711337
 55       0.000008799447
 56       0.000036281233
 57      -0.000008663465
 58      -0.000457141881
 59       0.000279227858
 60       0.000029209418
 61       0.000087956149
 62      -0.000023143250
 63      -0.000082477818
 64       0.000017766530
 65      -0.000582958207
 66      -0.000000853987
 67       0.000455063454
 68      -0.000058774909
 69      -0.000217463952
 70       0.000007954403
 71      -0.000047022455
 72       0.000105292369
 73      -0.000404650416
 74      -0.000682181845
 75      -0.000338834290
 76       0.000076770382
 77      -0.000070633339
 78       0.000018494972
 79      -0.000364191754
 80       0.000331030879
 81      -0.000094163302
 82       0.000094444582
 83      -0.000039810531
 84       0.000042099957
 85       0.000014484829
 86      -0.000012176454
 87       0.000011862882
 88       0.000001278920
 89       0.000030774322
 90      -0.000131882908
 91       0.000099178110
 92      -0.000093873469
 93       0.000003667816
 94      -0.000263486032
 95       0.000033093734
 96       0.000027839493
 97      -0.000023006966
 98      -0.000002299935
 99       0.000034721784
100      -0.000049759320
101      -0.000053611180
102       0.000004964052
103      -0.000028865455
104       0.000070245095
105      -0.000459384724
106      -0.001281135999
107       0.000223188551
108       0.000026111106
109       0.000046821379
110      -0.000068411914
111      -0.000283629796
112      -0.000488386922
113       0.000781767559
114      -0.000019292669
115       0.000008270167
116       0.000062280730
117       0.000000884651
118      -0.000001451954
119      -0.000002394870
120      -0.000002670669
121       0.000000022634
122       0.000220584390
123      -0.000167873466
124      -0.000277517523
125      -0.000035388087
126       0.000100092240
127       0.000019165551
128      -0.000026862351
129      -0.000050289015
130      -0.000006885683
131       0.000021785787
132      -0.000003036041
133       0.000020205175
134       0.000004964071
135      -0.000028865585
136       0.000070245418
137      -0.000459384988
138      -0.001281131340
139       0.000223184802
140      -0.000022571120
141       0.000040636372
142       0.000073440536
143       0.000246982166
144      -0.000416976392
145      -0.000833818051
146       0.000020184798
147       0.000013761273
148      -0.000061013202
149       0.000001380396
150      -0.000001219900
151       0.000002567316
152      -0.000002341545
153       0.000000538141
154       0.000272713727
155      -0.000156813824
156       0.000244639653
157      -0.000019553671
158      -0.000077015529
159      -0.000032773203
160       0.000026453044
161      -0.000045590745
162      -0.000001597426
163       0.000017086894
164       0.000005182942
165       0.000019588681
166       0.000022119135
167       0.000034109910
168      -0.000041183289
169      -0.000010754546
170      -0.000004133428
171      -0.000011700409
172       0.000022119157
173       0.000034109751
174      -0.000041182818
175       0.000010332391
176      -0.000006297972
177       0.000011100684
 Sym=     1a
 Ene= -2.06723941390222E+01
 Spin= Alpha
 Occup= 2.000000
  1       0.306819204342
  2       0.289636779507
  3       0.176608786248
  4       0.016975223447
  5       0.008229519932
  6       0.003032093981
  7       0.000411545818
  8       0.000329336706
  9       0.001186974710
 10      -0.000726664590
 11      -0.000581574461
 12      -0.001285030352
 13       0.000056692424
 14      -0.000030494098
 15       0.000676463603
 16       0.000014672058
 17      -0.000010468451
 18       0.000011822212
 19      -0.000003707225
 20       0.000044538007
 21      -0.000008819509
 22       0.000044249803
 23      -0.000032583153
 24      -0.000095557574
 25      -0.000449395434
 26       0.000003169038
 27       0.000021912421
 28       0.000012238934
 29      -0.000009940604
 30      -0.000042961387
 31      -0.000012011588
 32       0.000038112467
 33      -0.000000087438
 34       0.000000048023
 35      -0.000000166645
 36       0.000001838379
 37       0.000005174119
 38       0.000007800772
 39       0.000007894553
 40       0.000005484141
 41       0.000039838640
 42      -0.000002311520
 43       0.000009972535
 44       0.000333683509
 45      -0.000023469702
 46       0.000135891609
 47       0.001864135331
 48      -0.000125056647
 49       0.000669302132
 50       0.000157845227
 51      -0.000014295225
 52       0.000125692438
 53       0.000009473571
 54       0.000020100459
 55       0.000087118676
 56       0.000028750122
 57       0.000296949337
 58       0.000060935646
 59       0.000096768947
 60       0.000543922104
 61       0.000141783348
 62       0.001367931338
 63       0.000204002076
 64       0.000259309696
 65      -0.000035615905
 66      -0.000047666129
 67      -0.000041072439
 68      -0.000309004816
 69       0.000032098533
 70      -0.310073675085
 71      -0.292708949483
 72      -0.178482215128
 73      -0.017154770053
 74      -0.008313678546
 75      -0.003059594121
 76       0.000382345454
 77      -0.000500179807
 78       0.001151820103
 79      -0.000678126854
 80       0.000788733814
 81      -0.001220555861
 82       0.000056109320
 83      -0.000052498614
 84       0.000678994448
 85      -0.000012119877
 86       0.000016144798
 87       0.000012616183
 88       0.000011976140
 89       0.000041971527
 90       0.000001479216
 91      -0.000098692445
 92      -0.000034617071
 93       0.000019496763
 94      -0.000454739090
 95      -0.000000329627
 96       0.000028712837
 97      -0.000014123609
 98      -0.000000851424
 99       0.000036966535
100      -0.000026781869
101      -0.000034351902
102       0.000008117628
103       0.000011679523
104      -0.000004586206
105       0.000049678583
106       0.000167189899
107       0.000271603571
108      -0.000022194510
109      -0.000000427329
110      -0.000008073937
111       0.000051239100
112       0.000027627468
113       0.000003941390
114      -0.000085163072
115      -0.000073423784
116       0.000111257992
117      -0.000002003731
118       0.000002701535
119       0.000023847094
120       0.000003897185
121       0.000049308649
122       0.000004055237
123      -0.000026129295
124      -0.000063773130
125       0.000001732644
126      -0.000157151810
127      -0.000006151210
128      -0.000011269152
129      -0.000004969773
130       0.000001937177
131      -0.000012559485
132       0.000020238843
133      -0.000002339418
134      -0.000007043911
135      -0.000010598670
136       0.000005031492
137      -0.000048456395
138      -0.000160868834
139      -0.000276194955
140      -0.000021970479
141       0.000003060989
142      -0.000008062027
143       0.000048203493
144      -0.000030484668
145       0.000002812798
146      -0.000079542394
147       0.000068630164
148       0.000120360637
149       0.000006696415
150       0.000004805375
151       0.000022588678
152       0.000006677248
153       0.000048931792
154      -0.000016597130
155       0.000003073760
156      -0.000060609696
157      -0.000033912475
158      -0.000155845186
159      -0.000004462473
160      -0.000007981770
161       0.000006452626
162       0.000005451624
163       0.000016509833
164       0.000018236832
165      -0.000001777724
166       0.000400723722
167       0.000136545871
168      -0.000661777483
169       0.000105044787
170       0.000081219685
171      -0.000226556327
172      -0.000403943600
173      -0.000144032050
174       0.000669575561
175       0.000101404000
176      -0.000064322388
177      -0.000237707587
 Sym=     1a
 Ene= -2.06723731931346E+01
 Spin= Alpha
 Occup= 2.000000
  1      -0.310075580691
  2      -0.292706590635
  3      -0.178494225986
  4      -0.017106684040
  5      -0.008019576352
  6      -0.002622339516
  7      -0.000429830443
  8      -0.000316813655
  9      -0.001212668667
 10       0.000680155216
 11       0.000487198035
 12       0.001390939515
 13      -0.000030521186
 14      -0.000024798548
 15      -0.000364761652
 16       0.000007593862
 17      -0.000030752097
 18      -0.000008849882
 19      -0.000018346917
 20      -0.000019344498
 21      -0.000038336136
 22       0.000064918954
 23       0.000008674308
 24       0.000152315003
 25       0.000388275632
 26      -0.000021676526
 27      -0.000047101636
 28      -0.000032389276
 29       0.000022999513
 30       0.000053119797
 31       0.000013660236
 32      -0.000023417011
 33      -0.000016571680
 34       0.000009102848
 35      -0.000031592085
 36       0.000348504358
 37       0.000980833690
 38       0.001478601703
 39       0.001496130108
 40       0.001039646888
 41      -0.000001168050
 42      -0.000023654780
 43      -0.000001413316
 44      -0.000018176357
 45      -0.000405416022
 46      -0.000024032889
 47      -0.000094709281
 48      -0.002096185980
 49      -0.000124084735
 50      -0.000006012356
 51      -0.000127895831
 52      -0.000008020555
 53       0.000132163027
 54      -0.000109180494
 55      -0.000004758210
 56      -0.000077328819
 57       0.000010963814
 58       0.001180752105
 59      -0.000815379257
 60      -0.000078857773
 61      -0.000153049657
 62       0.000051884511
 63      -0.000006785313
 64       0.000011952735
 65      -0.000041623838
 66       0.000042865170
 67       0.000161905616
 68      -0.000066824919
 69      -0.000465450757
 70      -0.306821129576
 71      -0.289634394572
 72      -0.176620924969
 73      -0.016926631558
 74      -0.007932305266
 75      -0.002590202018
 76       0.000393277397
 77      -0.000481831004
 78       0.001154361354
 79      -0.000625127522
 80       0.000688070981
 81      -0.001310087664
 82       0.000026143257
 83      -0.000068200518
 84       0.000352237909
 85       0.000009750286
 86      -0.000027526833
 87       0.000011211365
 88      -0.000013680451
 89       0.000024842177
 90      -0.000041193448
 91       0.000018696434
 92      -0.000017509266
 93       0.000085546820
 94      -0.000407581948
 95       0.000011821745
 96       0.000052879889
 97      -0.000037348724
 98      -0.000018222725
 99       0.000044084713
100      -0.000025794400
101      -0.000021071928
102       0.000101738761
103       0.000102387292
104       0.000042254420
105       0.000115495135
106       0.000597994648
107      -0.000436701030
108      -0.000008074143
109      -0.000008407253
110       0.000017431946
111       0.000070812187
112       0.000155948008
113      -0.000200674159
114       0.000020033306
115       0.000179965760
116      -0.000078958516
117       0.000004249553
118      -0.000004198742
119       0.000013582334
120      -0.000007705451
121       0.000003223880
122      -0.000006296467
123       0.000004906544
124      -0.000023064891
125       0.000039494082
126      -0.000011287323
127      -0.000006574683
128      -0.000014760785
129      -0.000012124739
130      -0.000012184654
131       0.000006528748
132      -0.000000652857
133       0.000006550768
134       0.000101818640
135       0.000102504689
136       0.000042203688
137       0.000116012668
138       0.000599723559
139      -0.000433809300
140       0.000007683535
141      -0.000007012939
142      -0.000018232574
143      -0.000059459968
144       0.000137485005
145       0.000217507960
146      -0.000004997973
147       0.000170059078
148       0.000097858958
149       0.000001544887
150      -0.000005582187
151      -0.000013009629
152      -0.000009665684
153      -0.000001775200
154      -0.000001953154
155       0.000007447181
156       0.000019260153
157       0.000043497303
158       0.000005507932
159       0.000002545252
160       0.000014462296
161      -0.000016653623
162       0.000009181149
163       0.000002100552
164       0.000001603501
165       0.000007816995
166      -0.000307290746
167      -0.000710362510
168       0.000742565836
169      -0.000219638301
170      -0.000142651172
171       0.000256912510
172      -0.000303045672
173      -0.000708882761
174       0.000735542418
175       0.000207561941
176      -0.000128872768
177      -0.000270068466
 Sym=     1a
 Ene= -2.06002637157321E+01
 Spin= Alpha
 Occup= 2.000000
  1       0.000009282040
  2      -0.000004089481
  3       0.000031905523
  4      -0.000098991862
  5      -0.000206243250
  6      -0.000044560593
  7      -0.000018175751
  8      -0.000006254402
  9       0.000034636892
 10       0.000078167039
 11       0.000035636131
 12      -0.000085091419
 13      -0.000064980203
 14       0.000060762547
 15       0.000251101144
 16       0.000011751001
 17       0.000000412722
 18       0.000049977613
 19       0.000003489262
 20      -0.000024927852
 21      -0.000046787419
 22       0.000009769216
 23      -0.000154771063
 24      -0.000008796843
 25       0.000097709344
 26       0.000001309789
 27      -0.000001216363
 28      -0.000018196262
 29       0.000021700639
 30      -0.000018556765
 31       0.000010016926
 32      -0.000010155330
 33      -0.000000024593
 34       0.000000008157
 35      -0.000000035573
 36       0.000000362680
 37       0.000001015501
 38       0.000001942492
 39       0.000002820072
 40       0.000000234760
 41       0.000036583069
 42       0.000004619055
 43      -0.000105093414
 44       0.000011361173
 45       0.000008683227
 46      -0.000158598545
 47       0.001282526445
 48       0.000202098003
 49      -0.004383786331
 50       0.000813540309
 51       0.000077646018
 52      -0.001895644622
 53       0.000064393807
 54       0.000014814230
 55       0.000649375444
 56       0.000020836477
 57      -0.000208005698
 58       0.000173831367
 59       0.000030556091
 60       0.001756503071
 61       0.000042965634
 62      -0.000723387071
 63       0.000169533492
 64      -0.000412710480
 65       0.000015098727
 66      -0.000245751635
 67       0.000049685414
 68      -0.000117289836
 69      -0.000003248796
 70      -0.000009508464
 71       0.000003891948
 72      -0.000032079983
 73       0.000099305483
 74       0.000207627154
 75       0.000045102671
 76      -0.000017841429
 77       0.000003667694
 78       0.000035177307
 79       0.000075776536
 80      -0.000031875516
 81      -0.000088638004
 82      -0.000071803079
 83      -0.000083384616
 84       0.000243463028
 85      -0.000001608949
 86       0.000000922806
 87       0.000051595211
 88      -0.000001602436
 89      -0.000024466083
 90       0.000015185326
 91      -0.000011477503
 92      -0.000161022845
 93       0.000006281061
 94       0.000097478698
 95       0.000005723888
 96       0.000003175718
 97       0.000012765794
 98       0.000025905488
 99       0.000015901657
100       0.000010076126
101       0.000011047945
102      -0.308778888560
103      -0.291561691104
104      -0.177613609012
105      -0.017441362996
106      -0.009534352904
107      -0.003411813700
108       0.000438885947
109       0.000819512967
110      -0.001276266378
111      -0.000752201683
112      -0.001369322426
113       0.002161993808
114       0.000098837470
115       0.000570643996
116      -0.000307426992
117      -0.000064171230
118       0.000047109412
119       0.000113814543
120       0.000001968128
121      -0.000039621828
122       0.000363953555
123      -0.000276286233
124      -0.000564450994
125      -0.000053038030
126       0.000197782360
127      -0.000002319835
128      -0.000026895359
129      -0.000066678611
130      -0.000036009517
131       0.000044847514
132      -0.000019435914
133      -0.000005542103
134       0.308124089861
135       0.290943495713
136       0.177236758625
137       0.017405264835
138       0.009516716070
139       0.003405527070
140       0.000376568074
141      -0.000699339112
142      -0.001360900122
143      -0.000648280350
144       0.001167000762
145       0.002304053652
146       0.000053471525
147      -0.000537882426
148      -0.000369622439
149       0.000085595507
150      -0.000042472783
151       0.000102155888
152       0.000004580602
153      -0.000034640225
154      -0.000470140871
155       0.000252815477
156      -0.000505960533
157       0.000019938811
158       0.000161222912
159       0.000017359904
160      -0.000028492396
161       0.000072764587
162      -0.000030517364
163      -0.000036507977
164      -0.000012425053
165       0.000004676871
166      -0.000003678965
167      -0.000002100989
168       0.000148040178
169       0.000049787061
170       0.000027944776
171       0.000037549255
172       0.000003583485
173       0.000003103882
174      -0.000147333998
175       0.000046978731
176      -0.000035793766
177       0.000034000526
 Sym=     1a
 Ene= -2.06002375963121E+01
 Spin= Alpha
 Occup= 2.000000
  1       0.000106619080
  2       0.000093005968
  3       0.000082175316
  4      -0.000147715694
  5      -0.000651857583
  6      -0.000256128489
  7      -0.000031031513
  8       0.000016480646
  9      -0.000013097037
 10       0.000160435387
 11      -0.000017203090
 12       0.000156313726
 13      -0.000470546644
 14      -0.000128187383
 15       0.000298032520
 16      -0.000001741041
 17      -0.000019280592
 18       0.000005612233
 19      -0.000006235494
 20       0.000036724398
 21       0.000041423394
 22       0.000039337848
 23      -0.000033046463
 24       0.000033215552
 25      -0.000107285726
 26       0.000000888299
 27      -0.000012216390
 28      -0.000012368699
 29       0.000014915333
 30      -0.000001901868
 31      -0.000024999927
 32       0.000027003384
 33       0.000023154698
 34      -0.000007696092
 35       0.000033525474
 36      -0.000341936911
 37      -0.000957732801
 38      -0.001830440139
 39      -0.002651103035
 40      -0.000217741009
 41      -0.000002142769
 42      -0.000053889661
 43      -0.000003210019
 44      -0.000000967161
 45      -0.000024211951
 46      -0.000001563050
 47      -0.000073239522
 48      -0.001842833300
 49      -0.000110614374
 50      -0.000059361347
 51      -0.001487774260
 52      -0.000087553126
 53       0.000411449706
 54      -0.000331142136
 55      -0.000018885963
 56      -0.000138810085
 57       0.000030062334
 58       0.001400864850
 59      -0.000674474033
 60      -0.000106979766
 61      -0.000062497482
 62       0.000042895255
 63       0.000051013098
 64      -0.000004256544
 65       0.000358526435
 66       0.000022589456
 67      -0.000203427413
 68       0.000003027700
 69      -0.000091331371
 70       0.000106599002
 71       0.000093014179
 72       0.000082107622
 73      -0.000147506591
 74      -0.000651422281
 75      -0.000256034270
 76       0.000032159666
 77       0.000012327702
 78       0.000014827578
 79      -0.000160414877
 80       0.000013710052
 81      -0.000156699357
 82       0.000459915789
 83      -0.000130908034
 84      -0.000312403949
 85      -0.000002557166
 86      -0.000023610514
 87      -0.000002250845
 88      -0.000012342526
 89      -0.000032792429
 90       0.000046358775
 91       0.000052961577
 92       0.000015216947
 93       0.000052470981
 94       0.000095187722
 95      -0.000003980448
 96       0.000011382762
 97      -0.000009369761
 98      -0.000019987262
 99       0.000002798112
100       0.000030446587
101       0.000017760520
102       0.308130562458
103       0.290906296928
104       0.177335288048
105       0.016984014122
106       0.008293703684
107       0.002956360328
108      -0.000426667635
109      -0.000786137514
110       0.001220715558
111       0.000637007702
112       0.001123917207
113      -0.001705194092
114      -0.000235040399
115      -0.000031234970
116       0.000722533052
117       0.000055066531
118      -0.000058124418
119      -0.000091693740
120      -0.000040685870
121       0.000035315945
122      -0.000274392503
123       0.000273721081
124       0.000447056255
125       0.000157183206
126      -0.000172251092
127      -0.000024818200
128       0.000052540556
129       0.000078801940
130       0.000026707672
131      -0.000050136374
132       0.000016807128
133      -0.000003637762
134       0.308785348671
135       0.291524573712
136       0.177711928384
137       0.017020995487
138       0.008313915471
139       0.002963592118
140       0.000368402455
141      -0.000674580550
142      -0.001307503551
143      -0.000553666980
144       0.000971538027
145       0.001830420288
146       0.000235218090
147       0.000031670862
148      -0.000723228150
149       0.000073173738
150      -0.000054246242
151       0.000088071151
152      -0.000034998781
153      -0.000022794333
154      -0.000362129198
155       0.000255630721
156      -0.000422830726
157       0.000130561234
158       0.000118869714
159       0.000046966060
160      -0.000054302265
161       0.000077368420
162      -0.000019176025
163      -0.000038735275
164      -0.000011452219
165      -0.000003476271
166       0.000044940180
167      -0.000471975371
168      -0.000332547380
169      -0.000110908892
170      -0.000083903993
171       0.000049728502
172       0.000044947943
173      -0.000471970411
174      -0.000332861481
175       0.000104118324
176      -0.000086398875
177      -0.000059443556
 Sym=     1a
 Ene= -9.26832655066714E+00
 Spin= Alpha
 Occup= 2.000000
  1       0.000060572799
  2       0.000031354914
  3       0.000159007542
  4      -0.000547356458
  5      -0.000793449843
  6      -0.002202732667
  7      -0.000230028183
  8      -0.000173121270
  9      -0.000084438791
 10       0.000121667246
 11       0.000069582356
 12       0.000000832663
 13      -0.000773905243
 14      -0.000399294387
 15      -0.000212355545
 16       0.000018748703
 17      -0.000031862369
 18      -0.000025984672
 19      -0.000006253838
 20      -0.000053937895
 21      -0.000013928030
 22       0.000046505153
 23       0.000045625458
 24      -0.000005008976
 25       0.000114885573
 26       0.000011379430
 27       0.000001252365
 28       0.000007829917
 29      -0.000005821396
 30      -0.000014761139
 31       0.000005234263
 32       0.000005158583
 33       0.273489005129
 34       0.030178965505
 35       0.117132267000
 36      -0.305927486483
 37       0.543586670395
 38      -0.273299205900