[Molden Format]
[Title]
 Molden file created by orca_2mkl for BaseName=/home/nikolayandreadi/CCact/NpF4

[Atoms] AU
Np   1  93         -0.0187026195         0.0143694775         0.0244247103 
F    2   9         -1.2816065948        -1.9159782094         3.1371249063 
F    3   9         -1.3031097885        -1.8115557227        -3.1416923744 
F    4   9         -1.2519114384         3.6868859229        -0.0212443012 
F    5   9          3.8553342208         0.0262804213         0.0013832795 
[GTO]
  1 0
s   9 1.0 
 60212393.7825810015     16460.1280594584
 27369269.9011729993     -6013.5086094560
 12440577.2278060000      9343.9211279925
  5654807.8308210000       308.3663916485
  2570367.1958280001      4334.3325603517
  1168348.7253759999      1972.8827387435
   531067.6024440000      2728.3967901233
   241394.3647470000      2034.2792369220
   109724.7112490000      2086.3436128711
s   1 1.0 
    49874.8687490000      2378.6000111367
s   1 1.0 
    22670.3948860000      1316.7532712607
s   1 1.0 
    10304.7249480000       728.9326365214
s   1 1.0 
     4683.9658860000       403.5249429308
s   1 1.0 
     2129.0754030000       223.3846742626
s   1 1.0 
      967.7615470000       123.6620277677
s   1 1.0 
      439.8916120000        68.4572348252
s   1 1.0 
      199.9507330000        37.8967827997
s   1 1.0 
       90.8866970000        20.9790265547
s   1 1.0 
       41.3121350000        11.6136389953
s   1 1.0 
       18.7782430000         6.4291166887
s   1 1.0 
        8.5355650000         3.5590517075
s   1 1.0 
        3.8798020000         1.9702315267
s   1 1.0 
        1.7635460000         1.0906871246
s   1 1.0 
        0.8016120000         0.6037862931
s   1 1.0 
        0.3643690000         0.3342459531
s   1 1.0 
        0.1656220000         0.1850327531
s   1 1.0 
        0.0752830000         0.1024313225
s   1 1.0 
        0.0342190000         0.0567035929
s   1 1.0 
        0.0155540000         0.0313900251
p   8 1.0 
   859302.8310040000    131775.7051530663
   358042.8462520000     11325.8407160590
   149184.5192720000     38266.0812549783
    62160.2163630000     19009.8155098714
    25900.0901510000     18342.5702252260
    10791.7042300000     14732.4699955005
     4496.5434290000     13756.3118120073
     1873.5597620000     12431.3284313481
p   1 1.0 
      780.6499010000      5881.8029941886
p   1 1.0 
      325.2707920000      1969.0031994381
p   1 1.0 
      135.5294970000       659.1471384521
p   1 1.0 
       56.4706240000       220.6573109288
p   1 1.0 
       23.5294270000        73.8676489948
p   1 1.0 
        9.8039280000        24.7280704473
p   1 1.0 
        4.0849700000         8.2780143929
p   1 1.0 
        1.7020710000         2.7711636791
p   1 1.0 
        0.7091960000         0.9276794468
p   1 1.0 
        0.2954980000         0.3105512418
p   1 1.0 
        0.1231240000         0.1039605296
p   1 1.0 
        0.0513020000         0.0348023010
d   7 1.0 
    42129.4422870000     56906.5227948507
    16851.7769150000     28000.6591442440
     6740.7107660000     31059.1451506409
     2696.2843060000     28550.8495479176
     1078.5137230000     30419.9475915360
      431.4054890000     27516.9214778059
      172.5621960000     18646.3556919396
d   1 1.0 
       69.0248780000      4712.2678372904
d   1 1.0 
       27.6099510000       948.0580852984
d   1 1.0 
       11.0439810000       190.7392068921
d   1 1.0 
        4.4175920000        38.3746907348
d   1 1.0 
        1.7670370000         7.7205805666
d   1 1.0 
        0.7068150000         1.5532993453
d   1 1.0 
        0.2827260000         0.3125072837
d   1 1.0 
        0.1130900000         0.0628727477
d   1 1.0 
        0.0452360000         0.0126493272
f   6 1.0 
     4574.1842730000     62886.0548377263
     1759.3016440000     54541.2436081452
      676.6544780000     60258.2175061621
      260.2517220000     58997.4055482529
      100.0968160000     42811.8352412536
       38.4987760000     17381.1576470009
f   1 1.0 
       14.8072210000      2452.2547560014
f   1 1.0 
        5.6950850000       285.6771815775
f   1 1.0 
        2.1904170000        33.2801582217
f   1 1.0 
        0.8424680000         3.8769951722
f   1 1.0 
        0.3240260000         0.4516528586
f   1 1.0 
        0.1246250000         0.0526152593

  2 0
s   6 1.0 
    35479.1004410000         1.9229128581
     5318.4728983000         2.2734773358
     1210.4810975000         3.4747482552
      342.8551814000         5.2879612972
      112.0194318100         7.1666332516
       40.7147402500         7.7556346254
s   1 1.0 
       16.0396781100         5.7122450312
s   1 1.0 
        6.5038186700         2.9025947842
s   1 1.0 
        1.5440477500         0.9872011154
s   1 1.0 
        0.6122345300        -0.4932856223
s   1 1.0 
        0.2402798000         0.2445952611
p   4 1.0 
       80.2339004800         4.2755032106
       18.5940107400         4.7314752302
        5.6867902700         4.0864798013
        1.9511006300         2.2989954518
p   1 1.0 
        0.6697021100         0.8635593126
p   1 1.0 
        0.2165130000         0.2105208234
d   1 1.0 
        3.1070000000        20.7284714039
d   1 1.0 
        0.8550000000         2.1672588463
f   1 1.0 
        1.9170000000        24.6547062912

  3 0
s   6 1.0 
    35479.1004410000         1.9229128581
     5318.4728983000         2.2734773358
     1210.4810975000         3.4747482552
      342.8551814000         5.2879612972
      112.0194318100         7.1666332516
       40.7147402500         7.7556346254
s   1 1.0 
       16.0396781100         5.7122450312
s   1 1.0 
        6.5038186700         2.9025947842
s   1 1.0 
        1.5440477500         0.9872011154
s   1 1.0 
        0.6122345300        -0.4932856223
s   1 1.0 
        0.2402798000         0.2445952611
p   4 1.0 
       80.2339004800         4.2755032106
       18.5940107400         4.7314752302
        5.6867902700         4.0864798013
        1.9511006300         2.2989954518
p   1 1.0 
        0.6697021100         0.8635593126
p   1 1.0 
        0.2165130000         0.2105208234
d   1 1.0 
        3.1070000000        20.7284714039
d   1 1.0 
        0.8550000000         2.1672588463
f   1 1.0 
        1.9170000000        24.6547062912

  4 0
s   6 1.0 
    35479.1004410000         1.9229128581
     5318.4728983000         2.2734773358
     1210.4810975000         3.4747482552
      342.8551814000         5.2879612972
      112.0194318100         7.1666332516
       40.7147402500         7.7556346254
s   1 1.0 
       16.0396781100         5.7122450312
s   1 1.0 
        6.5038186700         2.9025947842
s   1 1.0 
        1.5440477500         0.9872011154
s   1 1.0 
        0.6122345300        -0.4932856223
s   1 1.0 
        0.2402798000         0.2445952611
p   4 1.0 
       80.2339004800         4.2755032106
       18.5940107400         4.7314752302
        5.6867902700         4.0864798013
        1.9511006300         2.2989954518
p   1 1.0 
        0.6697021100         0.8635593126
p   1 1.0 
        0.2165130000         0.2105208234
d   1 1.0 
        3.1070000000        20.7284714039
d   1 1.0 
        0.8550000000         2.1672588463
f   1 1.0 
        1.9170000000        24.6547062912

  5 0
s   6 1.0 
    35479.1004410000         1.9229128581
     5318.4728983000         2.2734773358
     1210.4810975000         3.4747482552
      342.8551814000         5.2879612972
      112.0194318100         7.1666332516
       40.7147402500         7.7556346254
s   1 1.0 
       16.0396781100         5.7122450312
s   1 1.0 
        6.5038186700         2.9025947842
s   1 1.0 
        1.5440477500         0.9872011154
s   1 1.0 
        0.6122345300        -0.4932856223
s   1 1.0 
        0.2402798000         0.2445952611
p   4 1.0 
       80.2339004800         4.2755032106
       18.5940107400         4.7314752302
        5.6867902700         4.0864798013
        1.9511006300         2.2989954518
p   1 1.0 
        0.6697021100         0.8635593126
p   1 1.0 
        0.2165130000         0.2105208234
d   1 1.0 
        3.1070000000        20.7284714039
d   1 1.0 
        0.8550000000         2.1672588463
f   1 1.0 
        1.9170000000        24.6547062912

[5D]
[9G]
[MO]
 Sym=     1a
 Ene= -4.37349559253638E+03
 Spin= Alpha
 Occup= 1.000000
  1      -0.087306406880
  2      -0.066328177499
  3      -0.113242556969
  4      -0.178787791827
  5      -0.264676249060
  6      -0.301327897861
  7      -0.190681170103
  8      -0.031597164017
  9      -0.000892826940
 10       0.000634233490
 11      -0.000462104518
 12       0.000341245508
 13      -0.000242546221
 14       0.000163811899
 15      -0.000109260054
 16       0.000073013805
 17      -0.000048152003
 18       0.000029500674
 19      -0.000014716711
 20       0.000006446804
 21      -0.000001738854
 22       0.000000001827
 23      -0.000000002544
 24      -0.000000007550
 25       0.000000001147
 26      -0.000000000136
 27       0.000000000998
 28      -0.000000000879
 29       0.000000000378
 30      -0.000000000564
 31       0.000000000368
 32      -0.000000000132
 33       0.000000000150
 34      -0.000000000428
 35       0.000000000181
 36      -0.000000000159
 37       0.000000000601
 38      -0.000000000291
 39      -0.000000000075
 40      -0.000000000642
 41       0.000000000416
 42       0.000000000441
 43       0.000000000988
 44      -0.000000000778
 45      -0.000000001222
 46      -0.000000001924
 47       0.000000001550
 48       0.000000002592
 49       0.000000003678
 50      -0.000000002945
 51      -0.000000004932
 52      -0.000000005034
 53       0.000000004031
 54       0.000000006736
 55       0.000000004424
 56      -0.000000003624
 57      -0.000000005879
 58      -0.000000004314
 59       0.000000003338
 60       0.000000005629
 61       0.000000004862
 62       0.000000006091
 63      -0.000000000046
 64      -0.000000007392
 65      -0.000000004254
 66      -0.000000002821
 67      -0.000000003303
 68       0.000000000012
 69       0.000000003099
 70       0.000000002582
 71       0.000000003420
 72       0.000000003494
 73       0.000000001187
 74      -0.000000003552
 75      -0.000000003000
 76      -0.000000002007
 77      -0.000000001517
 78      -0.000000001238
 79       0.000000000676
 80       0.000000001860
 81       0.000000001608
 82       0.000000000451
 83       0.000000001899
 84       0.000000001337
 85      -0.000000001592
 86      -0.000000002350
 87      -0.000000000393
 88      -0.000000003465
 89      -0.000000002632
 90       0.000000002257
 91       0.000000002666
 92       0.000000000328
 93       0.000000005070
 94       0.000000004803
 95      -0.000000002333
 96      -0.000000001741
 97      -0.000000000804
 98      -0.000000004179
 99      -0.000000003970
100       0.000000001050
101      -0.000000008371
102      -0.000000002476
103      -0.000000019993
104      -0.000000021028
105       0.000000006180
106       0.000000003486
107      -0.000000001079
108       0.000000005944
109       0.000000005908
110      -0.000000003865
111      -0.000000000060
112       0.000000006259
113       0.000000008314
114       0.000000000161
115      -0.000000000445
116       0.000000008054
117      -0.000000002117
118      -0.000000000325
119      -0.000000018037
120      -0.000000026607
121      -0.000000000526
122       0.000000000270
123      -0.000000023826
124       0.000000006985
125       0.000000000607
126       0.000000035008
127       0.000000051457
128       0.000000001020
129      -0.000000000583
130       0.000000046181
131      -0.000000013511
132      -0.000000000937
133      -0.000000062896
134      -0.000000091627
135      -0.000000001825
136       0.000000001384
137      -0.000000082771
138       0.000000024024
139       0.000000001516
140       0.000000105710
141       0.000000154176
142       0.000000003137
143      -0.000000002554
144       0.000000139260
145      -0.000000040475
146      -0.000000001828
147      -0.000000135866
148      -0.000000199062
149      -0.000000004245
150       0.000000003847
151      -0.000000179524
152       0.000000052423
153      -0.000000000233
154      -0.000000073105
155      -0.000000112475
156      -0.000000003465
157       0.000000005181
158      -0.000000099691
159       0.000000030457
160       0.000000012788
161      -0.000000055862
162       0.000000095666
163      -0.000000136796
164      -0.000000031279
165      -0.000000307294
166      -0.000000015286
167      -0.000000023094
168       0.000000037601
169      -0.000000025117
170      -0.000000039358
171       0.000000062154
172      -0.000000081537
173      -0.000000122519
174       0.000000200570
175      -0.000000035664
176       0.000000035000
177       0.000000052971
178       0.000000009572
179      -0.000000021064
180       0.000000073124
181      -0.000000071959
182      -0.000000108491
183      -0.000000019631
184       0.000000042934
185      -0.000000010462
186       0.000000052000
187       0.000000078866
188       0.000000025161
189      -0.000000057685
190       0.000000019727
191      -0.000000003369
192       0.000000012764
193      -0.000000055750
194       0.000000095451
195      -0.000000135804
196      -0.000000024655
197      -0.000000280771
198      -0.000000015917
199      -0.000000022478
200      -0.000000039064
201      -0.000000024257
202      -0.000000035095
203      -0.000000060515
204      -0.000000081825
205      -0.000000113997
206      -0.000000198463
207      -0.000000038587
208      -0.000000036117
209      -0.000000051360
210       0.000000007524
211      -0.000000020666
212       0.000000079598
213       0.000000074477
214       0.000000105916
215      -0.000000015542
216       0.000000042521
217       0.000000015943
218       0.000000055386
219       0.000000078641
220      -0.000000020330
221       0.000000056660
222       0.000000017792
223      -0.000000004875
224       0.000000012787
225      -0.000000055854
226       0.000000095652
227      -0.000000136769
228      -0.000000031298
229      -0.000000307542
230      -0.000000014975
231       0.000000044205
232      -0.000000000395
233      -0.000000024333
234       0.000000073893
235      -0.000000001465
236      -0.000000080135
237       0.000000235501
238      -0.000000001703
239       0.000000037845
240      -0.000000000086
241       0.000000001582
242       0.000000052885
243       0.000000040062
244      -0.000000077389
245      -0.000000000065
246      -0.000000003194
247      -0.000000108388
248      -0.000000082248
249      -0.000000001887
250      -0.000000021444
251       0.000000067341
252      -0.000000002087
253      -0.000000001301
254       0.000000075935
255      -0.000000051198
256       0.000000012759
257      -0.000000055727
258       0.000000095406
259      -0.000000135701
260      -0.000000024755
261      -0.000000281803
262       0.000000047707
263       0.000000000153
264      -0.000000000195
265       0.000000074355
266       0.000000000195
267      -0.000000000798
268       0.000000243256
269       0.000000001149
270      -0.000000000064
271       0.000000038328
272       0.000000000861
273       0.000000000086
274      -0.000000066620
275      -0.000000000375
276      -0.000000078937
277      -0.000000001814
278      -0.000000000225
279       0.000000137309
280       0.000000000712
281      -0.000000000992
282       0.000000070990
283       0.000000001418
284       0.000000001321
285       0.000000000065
286       0.000000091743
287       0.000000000474
 Sym=     1a
 Ene= -8.29154508088148E+02
 Spin= Alpha
 Occup= 1.000000
  1       0.037061791141
  2       0.030425884443
  3       0.050706179853
  4       0.087784092263
  5       0.139377391658
  6       0.176535399932
  7       0.067158776090
  8      -0.374927380721
  9      -0.607143231125
 10      -0.165188108428
 11       0.001952543924
 12      -0.001579624091
 13       0.000813858286
 14      -0.000401421294
 15       0.000214644928
 16      -0.000133672923
 17       0.000085758578
 18      -0.000051398620
 19       0.000025473881
 20      -0.000011138336
 21       0.000003000172
 22       0.000000020593
 23      -0.000000000366
 24      -0.000000016772
 25       0.000000041470
 26      -0.000000006271
 27      -0.000000036293
 28       0.000000045939
 29      -0.000000006339
 30      -0.000000074885
 31       0.000000045030
 32      -0.000000001994
 33      -0.000000072225
 34       0.000000007802
 35       0.000000002952
 36      -0.000000011383
 37      -0.000000005226
 38       0.000000001121
 39       0.000000000439
 40       0.000000002223
 41      -0.000000000032
 42       0.000000000760
 43      -0.000000001510
 44       0.000000000868
 45       0.000000002333
 46       0.000000004043
 47      -0.000000003248
 48      -0.000000006193
 49      -0.000000007564
 50       0.000000005698
 51       0.000000009337
 52       0.000000009315
 53      -0.000000007240
 54      -0.000000012073
 55      -0.000000007171
 56       0.000000006366
 57       0.000000012180
 58       0.000000007078
 59      -0.000000005698
 60      -0.000000010133
 61       0.000000250323
 62       0.000000305346
 63      -0.000000061309
 64      -0.000000298412
 65      -0.000000243428
 66      -0.000000000090
 67       0.000000005310
 68      -0.000000010167
 69       0.000000005954
 70       0.000000000486
 71      -0.000000037302
 72      -0.000000040976
 73      -0.000000019435
 74       0.000000051214
 75       0.000000028224
 76       0.000000007281
 77       0.000000007098
 78       0.000000007622
 79      -0.000000007636
 80      -0.000000004395
 81       0.000000002374
 82       0.000000003978
 83      -0.000000002258
 84      -0.000000007492
 85      -0.000000002529
 86       0.000000006270
 87       0.000000004034
 88       0.000000006871
 89      -0.000000001520
 90      -0.000000005102
 91      -0.000000003815
 92      -0.000000000464
 93      -0.000000007835
 94      -0.000000007674
 95       0.000000003088
 96       0.000000002271
 97       0.000000001618
 98       0.000000005496
 99       0.000000005119
100      -0.000000001028
101       0.000000014681
102       0.000000003648
103       0.000000034317
104       0.000000036871
105      -0.000000011143
106      -0.000000005918
107       0.000000002117
108      -0.000000009998
109      -0.000000010551
110       0.000000006706
111      -0.000000027926
112       0.000000047967
113      -0.000000084707
114      -0.000000002052
115      -0.000000059660
116       0.000000027041
117       0.000000033008
118       0.000000017808
119       0.000000064183
120       0.000000185466
121       0.000000003855
122       0.000000033246
123       0.000000106214
124      -0.000000054814
125      -0.000000011369
126      -0.000000109965
127      -0.000000213610
128      -0.000000004303
129      -0.000000017667
130      -0.000000157396
131       0.000000059505
132       0.000000006639
133       0.000000116128
134       0.000000195920
135       0.000000003932
136       0.000000007546
137       0.000000159095
138      -0.000000053167
139      -0.000000004638
140      -0.000000164327
141      -0.000000252005
142      -0.000000005158
143      -0.000000000723
144      -0.000000219363
145       0.000000067006
146       0.000000004086
147       0.000000209639
148       0.000000314199
149       0.000000006698
150      -0.000000003313
151       0.000000278677
152      -0.000000083220
153       0.000000000201
154       0.000000138756
155       0.000000209897
156       0.000000006168
157      -0.000000009869
158       0.000000187962
159      -0.000000056488
160      -0.000000020784
161       0.000000097998
162      -0.000000170667
163       0.000000259921
164       0.000000087931
165       0.000000533953
166       0.000000027822
167       0.000000042346
168      -0.000000068767
169       0.000000033636
170       0.000000052462
171      -0.000000082696
172       0.000000138302
173       0.000000208536
174      -0.000000340876
175       0.000000063241
176      -0.000000061955
177      -0.000000093956
178      -0.000000017045
179       0.000000037360
180      -0.000000136515
181       0.000000133915
182       0.000000202594
183       0.000000036840
184      -0.000000080227
185       0.000000018558
186      -0.000000091971
187      -0.000000139579
188      -0.000000044650
189       0.000000102144
190      -0.000000034919
191       0.000000005906
192      -0.000000020741
193       0.000000097769
194      -0.000000170223
195       0.000000257916
196       0.000000076381
197       0.000000490295
198       0.000000028994
199       0.000000041042
200       0.000000071279
201       0.000000032093
202       0.000000046441
203       0.000000080019
204       0.000000139423
205       0.000000194472
206       0.000000338515
207       0.000000068364
208       0.000000063961
209       0.000000090996
210      -0.000000013364
211       0.000000036601
212      -0.000000148161
213      -0.000000138528
214      -0.000000197134
215       0.000000029029
216      -0.000000079130
217      -0.000000028231
218      -0.000000098012
219      -0.000000139138
220       0.000000036039
221      -0.000000100296
222      -0.000000031437
223       0.000000008569
224      -0.000000020784
225       0.000000097995
226      -0.000000170646
227       0.000000259767
228       0.000000087809
229       0.000000535020
230       0.000000027268
231      -0.000000080877
232       0.000000000699
233       0.000000032571
234      -0.000000098648
235       0.000000002266
236       0.000000136140
237      -0.000000401039
238       0.000000002939
239      -0.000000067114
240       0.000000000184
241      -0.000000002747
242      -0.000000093819
243      -0.000000070959
244       0.000000144446
245      -0.000000000022
246       0.000000005751
247       0.000000202314
248       0.000000153159
249       0.000000003323
250       0.000000038004
251      -0.000000119172
252       0.000000003642
253       0.000000002338
254      -0.000000134369
255       0.000000090721
256      -0.000000020731
257       0.000000097731
258      -0.000000170179
259       0.000000258096
260       0.000000077278
261       0.000000491532
262      -0.000000087074
263      -0.000000000274
264       0.000000000333
265      -0.000000097960
266      -0.000000000284
267       0.000000001198
268      -0.000000413738
269      -0.000000001891
270       0.000000000109
271      -0.000000067889
272      -0.000000001511
273      -0.000000000128
274       0.000000117978
275       0.000000000668
276       0.000000147095
277       0.000000003320
278       0.000000000336
279      -0.000000255741
280      -0.000000001331
281       0.000000001753
282      -0.000000125632
283      -0.000000002434
284      -0.000000002333
285      -0.000000000067
286      -0.000000162326
287      -0.000000000855
 Sym=     1a
 Ene= -6.93482537594551E+02
 Spin= Alpha
 Occup= 1.000000
  1      -0.000000006787
  2      -0.000000005568
  3      -0.000000009436
  4      -0.000000015878
  5      -0.000000026633
  6      -0.000000029573
  7      -0.000000019306
  8       0.000000085685
  9       0.000000137634
 10      -0.000000022988
 11      -0.000000032229
 12       0.000000061124
 13      -0.000000066647
 14       0.000000075506
 15      -0.000000042326
 16      -0.000000184950
 17       0.000000653579
 18      -0.000000668869
 19       0.000000230384
 20      -0.000000303825
 21       0.000000084700
 22       0.165049527844
 23       0.047978441669
 24      -0.053226557492
 25       0.279016098751
 26       0.081107523312
 27      -0.089979454656
 28       0.418634657014
 29       0.121693391122
 30      -0.135004815004
 31       0.219133979043
 32       0.063700285046
 33      -0.070668160984
 34       0.007161841612
 35       0.002081839745
 36      -0.002309615892
 37       0.004019776089
 38       0.001168604793
 39      -0.001296322189
 40      -0.002784129169
 41      -0.000809460359
 42       0.000897835413
 43       0.001724598769
 44       0.000501552451
 45      -0.000556139566
 46      -0.001060772308
 47      -0.000308745893
 48       0.000342045093
 49       0.000666470242
 50       0.000194322118
 51      -0.000214853231
 52      -0.000415179049
 53      -0.000121167326
 54       0.000133725267
 55       0.000244653900
 56       0.000071393517
 57      -0.000078511453
 58      -0.000048389075
 59      -0.000014436070
 60       0.000015557612
 61      -0.000000512774
 62       0.000000168258
 63       0.000000213918
 64       0.000000548741
 65      -0.000000134169
 66       0.000001012460
 67      -0.000000246541
 68      -0.000000404454
 69      -0.000001092047
 70       0.000000241347
 71      -0.000001580174
 72       0.000000409177
 73       0.000000640431
 74       0.000001751875
 75      -0.000000379275
 76       0.000002477178
 77      -0.000000623165
 78      -0.000001002196
 79      -0.000002758644
 80       0.000000595107
 81      -0.000004424269
 82       0.000001102496
 83       0.000001789523
 84       0.000004941332
 85      -0.000001063117
 86       0.000008856909
 87      -0.000002205303
 88      -0.000003584735
 89      -0.000009898275
 90       0.000002131345
 91      -0.000018823782
 92       0.000004677646
 93       0.000007623371
 94       0.000021021536
 95      -0.000004540138
 96       0.000031636339
 97      -0.000007888361
 98      -0.000012812811
 99      -0.000035435444
100       0.000007578589
101      -0.000052497209
102       0.000013160128
103       0.000021070874
104       0.000059356167
105      -0.000012260208
106       0.000006063679
107      -0.000001441227
108      -0.000002435443
109      -0.000006659598
110       0.000001533018
111       0.000000107468
112      -0.000000105088
113      -0.000000037030
114      -0.000000136543
115      -0.000000048600
116      -0.000000126587
117      -0.000000124849
118      -0.000000051175
119       0.000000206626
120      -0.000000451662
121       0.000000008972
122       0.000000217582
123       0.000000503618
124       0.000000129044
125      -0.000000004224
126      -0.000000385864
127       0.000001115330
128       0.000000142660
129      -0.000000470488
130      -0.000001064460
131      -0.000000156740
132       0.000000078797
133       0.000000800310
134      -0.000002479411
135      -0.000000406169
136       0.000001016140
137       0.000002279875
138       0.000000262768
139      -0.000000251755
140      -0.000001999134
141       0.000006331939
142       0.000001086163
143      -0.000002575126
144      -0.000005775468
145      -0.000000613891
146       0.000000590528
147       0.000004354045
148      -0.000013845463
149      -0.000002375636
150       0.000005613247
151       0.000012620911
152       0.000001316427
153      -0.000001055383
154      -0.000006984460
155       0.000022529970
156       0.000003601517
157      -0.000008707090
158      -0.000020036492
159      -0.000002248711
160      -0.000001198441
161       0.000005669090
162      -0.000010722761
163       0.000028163751
164       0.000048106550
165       0.000070996692
166       0.000002071005
167       0.000002908997
168      -0.000004603478
169      -0.000008089950
170      -0.000010315400
171       0.000016178092
172       0.000010386752
173       0.000008245034
174      -0.000011700052
175       0.000002058064
176      -0.000001414266
177      -0.000002743202
178      -0.000000723037
179       0.000000863458
180      -0.000007941589
181       0.000006175801
182       0.000010941283
183       0.000002584371
184      -0.000003796882
185       0.000000539261
186      -0.000000815638
187      -0.000002000818
188      -0.000000903448
189       0.000000910180
190      -0.000000248764
191      -0.000000149467
192      -0.000000331227
193       0.000001567130
194      -0.000002965173
195       0.000007797978
196       0.000013354163
197       0.000019866204
198       0.000000764009
199       0.000000809999
200       0.000001196248
201      -0.000003580280
202      -0.000003051406
203      -0.000003828389
204       0.000007720545
205       0.000003455209
206       0.000000812235
207       0.000000979754
208       0.000000114537
209       0.000000721551
210      -0.000000321849
211      -0.000000004413
212      -0.000003325744
213      -0.000001010417
214      -0.000002879234
215       0.000001016718
216      -0.000000413509
217      -0.000000699862
218      -0.000000097671
219      -0.000000861391
220       0.000000398520
221       0.000000171090
222       0.000000121970
223      -0.000000197126
224      -0.000000110796
225       0.000000522248
226      -0.000000981554
227       0.000002554333
228       0.000004671689
229       0.000008015757
230       0.000000352955
231      -0.000000315689
232      -0.000000032728
233      -0.000002159665
234       0.000000813713
235       0.000000429670
236       0.000006644334
237       0.000000864452
238      -0.000001688122
239      -0.000000065970
240       0.000000010874
241      -0.000000257318
242      -0.000000670983
243       0.000000342153
244       0.000000336318
245      -0.000000021772
246       0.000000690472
247       0.000002037911
248      -0.000000682741
249       0.000000206154
250      -0.000000164684
251      -0.000000253042
252       0.000000203962
253       0.000000177820
254       0.000000479676
255       0.000000829032
256       0.000001652756
257      -0.000007818199
258       0.000014787692
259      -0.000038849366
260      -0.000066430449
261      -0.000098261395
262       0.000008004253
263       0.000000094722
264      -0.000000124178
265      -0.000028572244
266      -0.000000596144
267       0.000000733953
268       0.000023197666
269       0.000001900274
270      -0.000002169260
271       0.000002670616
272      -0.000000155406
273      -0.000000028442
274      -0.000004567485
275       0.000000150524
276      -0.000010747342
277       0.000000329923
278       0.000000085913
279       0.000018446542
280      -0.000000352840
281       0.000000149639
282       0.000002062880
283      -0.000000145143
284      -0.000000201450
285       0.000000034552
286       0.000002704753
287      -0.000000211165
 Sym=     1a