[Molden Format]
[Title]
 Molden file created by orca_2mkl for BaseName=/home/nikolayandreadi_2125/_scratch/CC/ThCl4

[Atoms] AU
Th   1  90         -0.0000869274         0.0001814137         0.0000245664 
Cl   2  17         -1.6132629800        -2.2817573793         3.9518689906 
Cl   3  17         -1.6133612457        -2.2817365923        -3.9518349755 
Cl   4  17         -1.6133177820         4.5636545983        -0.0000661404 
Cl   5  17          4.8400289352        -0.0003420404         0.0000075589 
[GTO]
  1 0
s   9 1.0 
 56363088.8897159994     14778.1042965716
 25619585.8589619994     -5353.8940985092
 11645266.2995280009      8426.6246843710
  5293302.8634219998       355.2974589112
  2406046.7561010001      3966.2398531229
  1093657.6164090000      1871.6925969518
   497117.0983680000      2554.3549383654
   225962.3174400000      1947.5823690279
   102710.1442910000      2003.9339351483
s   1 1.0 
    46686.4292230000      2263.6177257250
s   1 1.0 
    21221.1041920000      1253.1009969054
s   1 1.0 
     9645.9564510000       693.6957997042
s   1 1.0 
     4384.5256600000       384.0184181081
s   1 1.0 
     1992.9662090000       212.5861876238
s   1 1.0 
      905.8937310000       117.6841657205
s   1 1.0 
      411.7698780000        65.1479902207
s   1 1.0 
      187.1681260000        36.0648401212
s   1 1.0 
       85.0764210000        19.9648936444
s   1 1.0 
       38.6711000000        11.0522318430
s   1 1.0 
       17.5777730000         6.1183311760
s   1 1.0 
        7.9898970000         3.3870060920
s   1 1.0 
        3.6317710000         1.8749899082
s   1 1.0 
        1.6508050000         1.0379631227
s   1 1.0 
        0.7503660000         0.5745991150
s   1 1.0 
        0.3410750000         0.3180881630
s   1 1.0 
        0.1550340000         0.1760882213
s   1 1.0 
        0.0704700000         0.0974795007
s   1 1.0 
        0.0320320000         0.0539632545
s   1 1.0 
        0.0145600000         0.0298731571
p   8 1.0 
   801557.4232150000    111526.6618928219
   333982.2596730000      9806.7644992234
   139159.2748640000     32786.6140208934
    57983.0311930000     16563.0181260814
    24159.5963310000     16114.3065299024
    10066.4984710000     13167.2436378249
     4194.3743630000     12484.9755041257
     1747.6559850000     11474.1273212331
p   1 1.0 
      728.1899940000      5391.9514325668
p   1 1.0 
      303.4124970000      1805.0195856541
p   1 1.0 
      126.4218740000       604.2516814379
p   1 1.0 
       52.6757810000       202.2804062426
p   1 1.0 
       21.9482420000        67.7157609165
p   1 1.0 
        9.1451010000        22.6686533209
p   1 1.0 
        3.8104590000         7.5886007462
p   1 1.0 
        1.5876910000         2.5403734581
p   1 1.0 
        0.6615380000         0.8504202302
p   1 1.0 
        0.2756410000         0.2846884572
p   1 1.0 
        0.1148500000         0.0953023999
p   1 1.0 
        0.0478540000         0.0319034680
d   7 1.0 
    38933.2915440000     46572.0662416863
    15573.3166180000     23269.4286059199
     6229.3266470000     26121.7698594031
     2491.7306590000     24387.7829800367
      996.6922640000     26291.1761786242
      398.6769050000     23958.5994014499
      159.4707620000     16247.8933905941
d   1 1.0 
       63.7883050000      4104.5631541937
d   1 1.0 
       25.5153220000       825.7943878925
d   1 1.0 
       10.2061290000       166.1410407984
d   1 1.0 
        4.0824520000        33.4258135301
d   1 1.0 
        1.6329810000         6.7249190969
d   1 1.0 
        0.6531920000         1.3529806436
d   1 1.0 
        0.2612770000         0.2722056592
d   1 1.0 
        0.1045110000         0.0547650627
d   1 1.0 
        0.0418040000         0.0110179628
f   6 1.0 
     4035.8413290000     49260.8367384417
     1552.2466650000     42474.1211389361
      597.0179480000     48000.3842431296
      229.6222880000     46516.5742749474
       88.3162650000     33125.9538993660
       33.9677940000     13028.7856284556
f   1 1.0 
       13.0645360000      1850.1696671323
f   1 1.0 
        5.0248220000       215.5368906459
f   1 1.0 
        1.9326240000        25.1091295974
f   1 1.0 
        0.7433170000         2.9251067932
f   1 1.0 
        0.2858910000         0.3407620072
f   1 1.0 
        0.1099580000         0.0396972526

  2 0
s   7 1.0 
    69507.9909450000         4.1142286333
    10426.1568800000         4.2286655222
     2373.2334061000         5.8493829067
      671.5642007100         8.3358677251
      218.4199979000        10.0089622684
       77.5722497100         8.2783277553
       28.8888152800         2.9822029766
s   1 1.0 
      127.1052718500        26.9794296956
s   1 1.0 
       39.3395829600        11.1952141621
s   1 1.0 
        7.6740680000         3.2860890225
s   1 1.0 
        3.8745627600        -1.9682357562
s   1 1.0 
        1.8385832600         1.1253110111
s   1 1.0 
        0.5022905800        -0.4252324193
s   1 1.0 
        0.1796272300         0.1966478587
p   6 1.0 
      666.5042328400        13.1758105786
      157.6424169000        16.0544655669
       50.2625209800        17.4320614645
       18.5360781100        14.3789566857
        7.2940532800         7.6571902731
        2.9433249000         1.9874071930
p   1 1.0 
        1.0404970800         1.4979287975
p   1 1.0 
        0.3845641500        -0.4316692201
p   1 1.0 
        0.1306964300         0.1120133392
d   2 1.0 
        4.6100000000         7.5524217504
        1.0110000000         2.6539585854
d   1 1.0 
        0.3390000000         0.4293579962
f   1 1.0 
        0.7060000000         2.6050175686

  3 0
s   7 1.0 
    69507.9909450000         4.1142286333
    10426.1568800000         4.2286655222
     2373.2334061000         5.8493829067
      671.5642007100         8.3358677251
      218.4199979000        10.0089622684
       77.5722497100         8.2783277553
       28.8888152800         2.9822029766
s   1 1.0 
      127.1052718500        26.9794296956
s   1 1.0 
       39.3395829600        11.1952141621
s   1 1.0 
        7.6740680000         3.2860890225
s   1 1.0 
        3.8745627600        -1.9682357562
s   1 1.0 
        1.8385832600         1.1253110111
s   1 1.0 
        0.5022905800        -0.4252324193
s   1 1.0 
        0.1796272300         0.1966478587
p   6 1.0 
      666.5042328400        13.1758105786
      157.6424169000        16.0544655669
       50.2625209800        17.4320614645
       18.5360781100        14.3789566857
        7.2940532800         7.6571902731
        2.9433249000         1.9874071930
p   1 1.0 
        1.0404970800         1.4979287975
p   1 1.0 
        0.3845641500        -0.4316692201
p   1 1.0 
        0.1306964300         0.1120133392
d   2 1.0 
        4.6100000000         7.5524217504
        1.0110000000         2.6539585854
d   1 1.0 
        0.3390000000         0.4293579962
f   1 1.0 
        0.7060000000         2.6050175686

  4 0
s   7 1.0 
    69507.9909450000         4.1142286333
    10426.1568800000         4.2286655222
     2373.2334061000         5.8493829067
      671.5642007100         8.3358677251
      218.4199979000        10.0089622684
       77.5722497100         8.2783277553
       28.8888152800         2.9822029766
s   1 1.0 
      127.1052718500        26.9794296956
s   1 1.0 
       39.3395829600        11.1952141621
s   1 1.0 
        7.6740680000         3.2860890225
s   1 1.0 
        3.8745627600        -1.9682357562
s   1 1.0 
        1.8385832600         1.1253110111
s   1 1.0 
        0.5022905800        -0.4252324193
s   1 1.0 
        0.1796272300         0.1966478587
p   6 1.0 
      666.5042328400        13.1758105786
      157.6424169000        16.0544655669
       50.2625209800        17.4320614645
       18.5360781100        14.3789566857
        7.2940532800         7.6571902731
        2.9433249000         1.9874071930
p   1 1.0 
        1.0404970800         1.4979287975
p   1 1.0 
        0.3845641500        -0.4316692201
p   1 1.0 
        0.1306964300         0.1120133392
d   2 1.0 
        4.6100000000         7.5524217504
        1.0110000000         2.6539585854
d   1 1.0 
        0.3390000000         0.4293579962
f   1 1.0 
        0.7060000000         2.6050175686

  5 0
s   7 1.0 
    69507.9909450000         4.1142286333
    10426.1568800000         4.2286655222
     2373.2334061000         5.8493829067
      671.5642007100         8.3358677251
      218.4199979000        10.0089622684
       77.5722497100         8.2783277553
       28.8888152800         2.9822029766
s   1 1.0 
      127.1052718500        26.9794296956
s   1 1.0 
       39.3395829600        11.1952141621
s   1 1.0 
        7.6740680000         3.2860890225
s   1 1.0 
        3.8745627600        -1.9682357562
s   1 1.0 
        1.8385832600         1.1253110111
s   1 1.0 
        0.5022905800        -0.4252324193
s   1 1.0 
        0.1796272300         0.1966478587
p   6 1.0 
      666.5042328400        13.1758105786
      157.6424169000        16.0544655669
       50.2625209800        17.4320614645
       18.5360781100        14.3789566857
        7.2940532800         7.6571902731
        2.9433249000         1.9874071930
p   1 1.0 
        1.0404970800         1.4979287975
p   1 1.0 
        0.3845641500        -0.4316692201
p   1 1.0 
        0.1306964300         0.1120133392
d   2 1.0 
        4.6100000000         7.5524217504
        1.0110000000         2.6539585854
d   1 1.0 
        0.3390000000         0.4293579962
f   1 1.0 
        0.7060000000         2.6050175686

[5D]
[9G]
[MO]
 Sym=     1a
 Ene= -4.04118120117807E+03
 Spin= Alpha
 Occup= 2.000000
  1       0.080559737870
  2       0.062916819966
  3       0.108723559937
  4       0.175081404152
  5       0.263883336092
  6       0.306747631535
  7       0.197324544393
  8       0.033452761059
  9       0.000825622519
 10      -0.000570378052
 11       0.000419451136
 12      -0.000315055942
 13       0.000225662589
 14      -0.000152709169
 15       0.000102535449
 16      -0.000070016372
 17       0.000048846842
 18      -0.000033140718
 19       0.000018793674
 20      -0.000007463859
 21       0.000001863543
 22      -0.000000000017
 23       0.000000000036
 24       0.000000000001
 25       0.000000000003
 26      -0.000000000006
 27       0.000000000001
 28       0.000000000002
 29      -0.000000000002
 30       0.000000000000
 31       0.000000000000
 32      -0.000000000003
 33       0.000000000000
 34      -0.000000000001
 35       0.000000000005
 36      -0.000000000000
 37       0.000000000002
 38      -0.000000000007
 39      -0.000000000000
 40      -0.000000000005
 41       0.000000000012
 42       0.000000000000
 43       0.000000000008
 44      -0.000000000018
 45       0.000000000000
 46      -0.000000000013
 47       0.000000000029
 48      -0.000000000001
 49       0.000000000021
 50      -0.000000000046
 51       0.000000000003
 52      -0.000000000019
 53       0.000000000047
 54      -0.000000000006
 55      -0.000000000001
 56      -0.000000000019
 57       0.000000000003
 58       0.000000000009
 59      -0.000000000016
 60      -0.000000000002
 61      -0.000000000000
 62       0.000000000000
 63       0.000000000000
 64      -0.000000000000
 65      -0.000000000000
 66       0.000000000002
 67      -0.000000000000
 68       0.000000000000
 69       0.000000000003
 70       0.000000000002
 71      -0.000000000005
 72       0.000000000001
 73      -0.000000000002
 74      -0.000000000009
 75      -0.000000000006
 76       0.000000000009
 77      -0.000000000001
 78       0.000000000003
 79       0.000000000016
 80       0.000000000011
 81      -0.000000000017
 82       0.000000000003
 83      -0.000000000005
 84      -0.000000000029
 85      -0.000000000021
 86       0.000000000031
 87      -0.000000000005
 88       0.000000000010
 89       0.000000000054
 90       0.000000000038
 91      -0.000000000055
 92       0.000000000008
 93      -0.000000000020
 94      -0.000000000096
 95      -0.000000000068
 96       0.000000000079
 97      -0.000000000009
 98       0.000000000032
 99       0.000000000138
100       0.000000000098
101      -0.000000000044
102       0.000000000006
103      -0.000000000017
104      -0.000000000087
105      -0.000000000058
106      -0.000000000007
107      -0.000000000000
108      -0.000000000001
109      -0.000000000010
110      -0.000000000008
111       0.000000000000
112      -0.000000009721
113      -0.000000013750
114      -0.000000000000
115       0.000000000000
116      -0.000000012552
117       0.000000003552
118      -0.000000000001
119       0.000000029256
120       0.000000041380
121       0.000000000000
122      -0.000000000000
123       0.000000037775
124      -0.000000010690
125       0.000000000002
126      -0.000000063197
127      -0.000000089387
128      -0.000000000000
129       0.000000000000
130      -0.000000081600
131       0.000000023093
132      -0.000000000004
133       0.000000127867
134       0.000000180859
135       0.000000000001
136      -0.000000000001
137       0.000000165102
138      -0.000000046724
139       0.000000000009
140      -0.000000267489
141      -0.000000378345
142      -0.000000000002
143       0.000000000002
144      -0.000000345384
145       0.000000097744
146      -0.000000000017
147       0.000000512370
148       0.000000724711
149       0.000000000005
150      -0.000000000006
151       0.000000661575
152      -0.000000187227
153       0.000000000011
154      -0.000000310273
155      -0.000000438888
156      -0.000000000003
157       0.000000000004
158      -0.000000400652
159       0.000000113393
160       0.000000017756
161      -0.000000019101
162       0.000000015850
163      -0.000000132073
164      -0.000000293792
165      -0.000000295725
166      -0.000000091193
167      -0.000000258358
168       0.000000007789
169       0.000000011019
170      -0.000000019082
171      -0.000000064470
172      -0.000000091198
173       0.000000157935
174      -0.000000171190
175      -0.000000242155
176       0.000000419366
177      -0.000000058548
178      -0.000000082813
179       0.000000143422
180      -0.000000011796
181       0.000000011122
182       0.000000015735
183       0.000000002277
184      -0.000000006420
185       0.000000204675
186      -0.000000192964
187      -0.000000272964
188      -0.000000039436
189       0.000000111418
190      -0.000000007884
191       0.000000030668
192       0.000000043389
193       0.000000010200
194      -0.000000028811
195       0.000000012444
196      -0.000000003514
197       0.000000017755
198      -0.000000019101
199       0.000000015849
200      -0.000000132068
201      -0.000000293779
202      -0.000000295708
203      -0.000000091173
204      -0.000000258346
205       0.000000007790
206       0.000000011019
207       0.000000019083
208      -0.000000064475
209      -0.000000091198
210      -0.000000157937
211      -0.000000171194
212      -0.000000242144
213      -0.000000419352
214      -0.000000058552
215      -0.000000082812
216      -0.000000143422
217      -0.000000011798
218      -0.000000011125
219      -0.000000015738
220       0.000000002276
221      -0.000000006422
222       0.000000204673
223       0.000000192974
224       0.000000272958
225      -0.000000039428
226       0.000000111423
227       0.000000007885
228       0.000000030675
229       0.000000043394
230      -0.000000010199
231       0.000000028817
232       0.000000012445
233      -0.000000003516
234       0.000000017755
235      -0.000000019100
236       0.000000015848
237      -0.000000132062
238      -0.000000293759
239      -0.000000295672
240      -0.000000091096
241      -0.000000258341
242       0.000000007792
243      -0.000000022043
244       0.000000000000
245      -0.000000064485
246       0.000000182413
247      -0.000000000004
248      -0.000000171187
249       0.000000484249
250      -0.000000000009
251      -0.000000058541
252       0.000000165598
253      -0.000000000004
254       0.000000011815
255       0.000000000000
256       0.000000000001
257       0.000000015919
258       0.000000012862
259      -0.000000204734
260       0.000000000003
261      -0.000000000014
262      -0.000000275828
263      -0.000000222865
264      -0.000000000002
265      -0.000000008787
266       0.000000037841
267      -0.000000000002
268      -0.000000000002
269       0.000000043039
270      -0.000000025159
271       0.000000017755
272      -0.000000019101
273       0.000000015849
274      -0.000000132070
275      -0.000000293785
276      -0.000000295717
277      -0.000000091186
278      -0.000000258342
279      -0.000000023370
280       0.000000000003
281       0.000000000000
282       0.000000193432
283      -0.000000000021
284      -0.000000000001
285       0.000000513619
286      -0.000000000053
287      -0.000000000002
288       0.000000175654
289      -0.000000000015
290      -0.000000000000
291       0.000000011802
292      -0.000000000000
293      -0.000000000000
294      -0.000000020434
295       0.000000000008
296      -0.000000204704
297      -0.000000000002
298       0.000000000000
299       0.000000354538
300      -0.000000000086
301      -0.000000000000
302       0.000000038567
303       0.000000004323
304       0.000000000000
305       0.000000000000
306       0.000000049790
307      -0.000000001140
 Sym=     1a
 Ene= -7.56844486503999E+02
 Spin= Alpha
 Occup= 2.000000
  1      -0.033641536579
  2      -0.028344822998
  3      -0.047943521926
  4      -0.084514826688
  5      -0.137371667999
  6      -0.180016087432
  7      -0.081946507361
  8       0.357634475448
  9       0.618095799880
 10       0.179418844901
 11      -0.002315964549
 12       0.002243154141
 13      -0.001270078916
 14       0.000699717641
 15      -0.000415814019
 16       0.000274227300
 17      -0.000188542647
 18       0.000126650725
 19      -0.000071705749
 20       0.000028459894
 21      -0.000007099489
 22       0.000000000081
 23      -0.000000000172
 24       0.000000000024
 25       0.000000000107
 26      -0.000000000228
 27       0.000000000040
 28       0.000000000160
 29      -0.000000000341
 30       0.000000000075
 31       0.000000000136
 32      -0.000000000296
 33       0.000000000051
 34       0.000000000055
 35      -0.000000000103
 36       0.000000000004
 37      -0.000000000018
 38       0.000000000012
 39       0.000000000002
 40       0.000000000037
 41      -0.000000000041
 42      -0.000000000001
 43      -0.000000000047
 44       0.000000000057
 45       0.000000000001
 46       0.000000000058
 47      -0.000000000088
 48       0.000000000001
 49      -0.000000000085
 50       0.000000000157
 51      -0.000000000009
 52       0.000000000077
 53      -0.000000000168
 54       0.000000000021
 55      -0.000000000002
 56       0.000000000063
 57      -0.000000000012
 58      -0.000000000033
 59       0.000000000062
 60       0.000000000007
 61       0.000000000036
 62       0.000000000001
 63       0.000000000002
 64       0.000000000062
 65       0.000000000044
 66      -0.000000000006
 67      -0.000000000001
 68       0.000000000008
 69      -0.000000000008
 70      -0.000000000006
 71       0.000000000033
 72      -0.000000000003
 73       0.000000000009
 74       0.000000000056
 75       0.000000000041
 76      -0.000000000040
 77       0.000000000005
 78      -0.000000000010
 79      -0.000000000065
 80      -0.000000000048
 81       0.000000000064
 82      -0.000000000009
 83       0.000000000018
 84       0.000000000106
 85       0.000000000077
 86      -0.000000000117
 87       0.000000000017
 88      -0.000000000038
 89      -0.000000000201
 90      -0.000000000144
 91       0.000000000208
 92      -0.000000000029
 93       0.000000000073
 94       0.000000000362
 95       0.000000000258
 96      -0.000000000299
 97       0.000000000036
 98      -0.000000000118
 99      -0.000000000522
100      -0.000000000372
101       0.000000000171
102      -0.000000000025
103       0.000000000064
104       0.000000000328
105       0.000000000223
106       0.000000000025
107       0.000000000001
108       0.000000000005
109       0.000000000035
110       0.000000000028
111       0.000000000004
112      -0.000000102536
113      -0.000000145012
114      -0.000000000001
115       0.000000000002
116      -0.000000132377
117       0.000000037458
118       0.000000000003
119      -0.000000083944
120      -0.000000118736
121      -0.000000000001
122       0.000000000000
123      -0.000000108393
124       0.000000030676
125      -0.000000000008
126       0.000000248398
127       0.000000351340
128       0.000000000002
129      -0.000000000002
130       0.000000320732
131      -0.000000090767
132       0.000000000015
133      -0.000000473847
134      -0.000000670224
135      -0.000000000004
136       0.000000000003
137      -0.000000611835
138       0.000000173151
139      -0.000000000032
140       0.000000994877
141       0.000001407185
142       0.000000000008
143      -0.000000000008
144       0.000001284592
145      -0.000000363543
146       0.000000000065
147      -0.000001925551
148      -0.000002723554
149      -0.000000000018
150       0.000000000022
151      -0.000002486281
152       0.000000703622
153      -0.000000000040
154       0.000001170481
155       0.000001655669
156       0.000000000011
157      -0.000000000014
158       0.000001511430
159      -0.000000427765
160      -0.000000039996
161       0.000000050760
162      -0.000000062786
163       0.000000482798
164       0.000001096019
165       0.000001116949
166       0.000000364107
167       0.000001011138
168      -0.000000029263
169      -0.000000041395
170       0.000000071687
171       0.000000241293
172       0.000000341329
173      -0.000000591107
174       0.000000645415
175       0.000000912966
176      -0.000001581084
177       0.000000228510
178       0.000000323218
179      -0.000000559771
180       0.000000041435
181      -0.000000039069
182      -0.000000055272
183      -0.000000007999
184       0.000000022552
185      -0.000000766389
186       0.000000722537
187       0.000001022092
188       0.000000147667
189      -0.000000417195
190       0.000000028406
191      -0.000000111018
192      -0.000000157066
193      -0.000000036751
194       0.000000103805
195      -0.000000045507
196       0.000000012851
197      -0.000000039995
198       0.000000050758
199      -0.000000062784
200       0.000000482781
201       0.000001095974
202       0.000001116888
203       0.000000364033
204       0.000001011090
205      -0.000000029266
206      -0.000000041396
207      -0.000000071690
208       0.000000241311
209       0.000000341328
210       0.000000591114
211       0.000000645430
212       0.000000912925
213       0.000001581030
214       0.000000228525
215       0.000000323214
216       0.000000559774
217       0.000000041445
218       0.000000039080
219       0.000000055283
220      -0.000000007996
221       0.000000022560
222      -0.000000766382
223      -0.000000722575
224      -0.000001022071
225       0.000000147634
226      -0.000000417217
227      -0.000000028410
228      -0.000000111044
229      -0.000000157087
230       0.000000036747
231      -0.000000103829
232      -0.000000045511
233       0.000000012858
234      -0.000000039993
235       0.000000050756
236      -0.000000062782
237       0.000000482757
238       0.000001095899
239       0.000001116757
240       0.000000363745
241       0.000001011079
242      -0.000000029275
243       0.000000082812
244      -0.000000000002
245       0.000000241348
246      -0.000000682722
247       0.000000000014
248       0.000000645404
249      -0.000001825704
250       0.000000000034
251       0.000000228486
252      -0.000000646333
253       0.000000000014
254      -0.000000041507
255      -0.000000000000
256      -0.000000000005
257      -0.000000055923
258      -0.000000045183
259       0.000000766613
260      -0.000000000012
261       0.000000000053
262       0.000001032817
263       0.000000834503
264       0.000000000009
265       0.000000031141
266      -0.000000137086
267       0.000000000009
268       0.000000000007
269      -0.000000155749
270       0.000000090844
271      -0.000000039994
272       0.000000050758
273      -0.000000062785
274       0.000000482790
275       0.000001096000
276       0.000001116927
277       0.000000364089
278       0.000001011088
279       0.000000087798
280      -0.000000000010
281      -0.000000000000
282      -0.000000723957
283       0.000000000080
284       0.000000000002
285      -0.000001936428
286       0.000000000201
287       0.000000000006
288      -0.000000685571
289       0.000000000059
290       0.000000000002
291      -0.000000041456
292       0.000000000000
293       0.000000000000
294       0.000000071780
295      -0.000000000028
296       0.000000766497
297       0.000000000007
298      -0.000000000000
299      -0.000001327539
300       0.000000000324
301       0.000000000001
302      -0.000000139480
303      -0.000000016312
304      -0.000000000001
305      -0.000000000000
306      -0.000000180066
307       0.000000004298
 Sym=     1a
 Ene= -6.39280012392916E+02
 Spin= Alpha
 Occup= 2.000000
  1      -0.000000000007
  2      -0.000000000006
  3      -0.000000000009
  4      -0.000000000019
  5      -0.000000000026
  6      -0.000000000039
  7      -0.000000000019
  8       0.000000000079
  9       0.000000000115
 10       0.000000000078
 11      -0.000000000081
 12       0.000000000109
 13      -0.000000000245
 14       0.000000000513
 15      -0.000000001128
 16       0.000000002703
 17      -0.000000005650
 18       0.000000006729
 19      -0.000000003896
 20       0.000000001825
 21      -0.000000000462
 22      -0.158391775440
 23      -0.046194478072
 24      -0.057278552195
 25      -0.273347193639
 26      -0.079720875072
 27      -0.098849397037
 28      -0.415446170836
 29      -0.121163608253
 30      -0.150236053073
 31      -0.220601410680
 32      -0.064337728399
 33      -0.079775161156
 34      -0.007773895689
 35      -0.002267232985
 36      -0.002811241279
 37      -0.003984458536
 38      -0.001162055135
 39      -0.001440882903
 40       0.002774056746
 41       0.000809045116
 42       0.001003170310
 43      -0.001717854306
 44      -0.000501006849
 45      -0.000621220129
 46       0.001058311740
 47       0.000308653200
 48       0.000382712298
 49      -0.000668131430
 50      -0.000194858230
 51      -0.000241612679
 52       0.000426448321
 53       0.000124372213
 54       0.000154213659
 55      -0.000248752534
 56      -0.000072548085
 57      -0.000089954923
 58       0.000048312184
 59       0.000014089879
 60       0.000017471233
 61       0.000000566324
 62       0.000000167380
 63       0.000000236830
 64      -0.000000599108
 65       0.000000135246
 66      -0.000000890312
 67      -0.000000263228
 68      -0.000000372215
 69       0.000000941621
 70      -0.000000212352
 71       0.000001845088
 72       0.000000545462
 73       0.000000771450
 74      -0.000001951573
 75       0.000000440280
 76      -0.000003113328
 77      -0.000000920372
 78      -0.000001301730
 79       0.000003293046
 80      -0.000000742977
 81       0.000005657910
 82       0.000001672596
 83       0.000002365669
 84      -0.000005984547
 85       0.000001350275
 86      -0.000010753680
 87      -0.000003179002
 88      -0.000004496294
 89       0.000011374517
 90      -0.000002566415
 91       0.000021004394
 92       0.000006209285
 93       0.000008782231
 94      -0.000022217015
 95       0.000005012788
 96      -0.000039354405
 97      -0.000011633895
 98      -0.000016454423
 99       0.000041626026
100      -0.000009391873
101       0.000061784057
102       0.000018265112
103       0.000025832326
104      -0.000065348646
105       0.000014743661
106      -0.000007500693
107      -0.000002217273
108      -0.000003137024
109       0.000007935163
110      -0.000001791677
111      -0.000000011055
112       0.000000024189
113      -0.000000091894
114       0.000000014273
115      -0.000000040376
116       0.000000084407
117       0.000000008674
118       0.000000044645
119      -0.000000097745
120       0.000000371260
121      -0.000000057689
122       0.000000163092
123      -0.000000340944
124      -0.000000034951
125      -0.000000101747
126       0.000000222783
127      -0.000000846157
128       0.000000131487
129      -0.000000371701
130       0.000000777046
131       0.000000079630
132       0.000000217605
133      -0.000000476479
134       0.000001809698
135      -0.000000281215
136       0.000000794958
137      -0.000001661888
138      -0.000000170291
139      -0.000000521484
140       0.000001141895
141      -0.000004336945
142       0.000000673927
143      -0.000001905103
144       0.000003982740
145       0.000000408100
146       0.000001333762
147      -0.000002920503
148       0.000011092474
149      -0.000001723634
150       0.000004872583
151      -0.000010186528
152      -0.000001043877
153      -0.000002851008
154       0.000006241007
155      -0.000023711454
156       0.000003684249
157      -0.000010415668
158       0.000021772569
159       0.000002232092
160       0.000000108845
161      -0.000000139630
162       0.000000179653
163      -0.000001325144
164      -0.000002867634
165      -0.000002683867
166      -0.000002301554
167      -0.000011598733
168       0.000000160485
169       0.000000170827
170      -0.000000252448
171      -0.000001081787
172      -0.000000958344
173       0.000001218103
174      -0.000002524101
175      -0.000001091274
176      -0.000000024126
177      -0.000010701367
178      -0.000004786861
179       0.000000299086
180      -0.000001470574
181      -0.000000166406
182       0.000000498647
183       0.000000717820
184       0.000000053455
185       0.000003734212
186      -0.000000277404
187      -0.000001646518
188      -0.000001873807
189       0.000000428018
190      -0.000000958303
191       0.000001052629
192       0.000001936743
193       0.000000737725
194      -0.000000896777
195       0.000000245661