[Molden Format]
[Title]
 Molden file created by orca_2mkl for BaseName=/data01/nikolayandreadi/sCC/H2CO3

[Atoms] AU
O    1   8          1.9569361336        -1.2635993945        -0.0697252252 
C    2   6          0.8101747265         0.6144368935        -1.3144141303 
O    3   8          1.7062507339         2.6610613192        -1.7630842473 
O    4   8         -1.5012985963        -0.1673144622        -1.9756841066 
H    5   1          3.6137913160        -0.6165174820         0.3692940605 
H    6   1         -2.2567166183         1.2444904839        -2.8660625896 
[GTO]
  1 0
s   6 1.0 
    27032.3826310000         1.4645050749
     4052.3871392000         1.8244031008
      922.3272271000         2.8547160967
      261.2407098900         4.3654874290
       85.3546413500         5.8940772662
       31.0350352400         6.2963020147
s   1 1.0 
       12.2608607300         4.6698272139
s   1 1.0 
        4.9987076000         2.3826123703
s   1 1.0 
        1.1703108200         0.8019291632
s   1 1.0 
        0.4647474100        -0.4011648063
s   1 1.0 
        0.1850453600         0.2010799377
p   4 1.0 
       63.2749548000         3.0898340730
       14.6270493800         3.3923831935
        4.4501223500         2.9482801524
        1.5275799600         1.7113350234
p   1 1.0 
        0.5293511800         0.6436057935
p   1 1.0 
        0.1747842100         0.1610897223
d   1 1.0 
        2.3140000000        12.3767310624
d   1 1.0 
        0.6450000000         1.3234257612
f   1 1.0 
        1.4280000000        12.7097950062

  2 0
s   6 1.0 
    13575.3496820000         0.7684632837
     2035.2333680000         1.0861436461
      463.2256235900         1.7703924000
      131.2001959800         2.7178496271
       42.8530158900         3.6101953426
       15.5841857700         3.6946140086
s   1 1.0 
        6.2067138500         2.8025694579
s   1 1.0 
        2.5764896500         1.4493770955
s   1 1.0 
        0.5769633900         0.4718145012
s   1 1.0 
        0.2297283100        -0.2364944648
s   1 1.0 
        0.0951644400         0.1221141848
p   4 1.0 
       34.6972322400         1.3669717438
        7.9582622800         1.4530900682
        2.3780826900         1.2707683638
        0.8143320800         0.8025478511
p   1 1.0 
        0.2888754700         0.3018758836
p   1 1.0 
        0.1005682400         0.0807265050
d   1 1.0 
        1.0970000000         3.3522135855
d   1 1.0 
        0.3180000000         0.3838994974
f   1 1.0 
        0.7610000000         3.0840084332

  3 0
s   6 1.0 
    27032.3826310000         1.4645050749
     4052.3871392000         1.8244031008
      922.3272271000         2.8547160967
      261.2407098900         4.3654874290
       85.3546413500         5.8940772662
       31.0350352400         6.2963020147
s   1 1.0 
       12.2608607300         4.6698272139
s   1 1.0 
        4.9987076000         2.3826123703
s   1 1.0 
        1.1703108200         0.8019291632
s   1 1.0 
        0.4647474100        -0.4011648063
s   1 1.0 
        0.1850453600         0.2010799377
p   4 1.0 
       63.2749548000         3.0898340730
       14.6270493800         3.3923831935
        4.4501223500         2.9482801524
        1.5275799600         1.7113350234
p   1 1.0 
        0.5293511800         0.6436057935
p   1 1.0 
        0.1747842100         0.1610897223
d   1 1.0 
        2.3140000000        12.3767310624
d   1 1.0 
        0.6450000000         1.3234257612
f   1 1.0 
        1.4280000000        12.7097950062

  4 0
s   6 1.0 
    27032.3826310000         1.4645050749
     4052.3871392000         1.8244031008
      922.3272271000         2.8547160967
      261.2407098900         4.3654874290
       85.3546413500         5.8940772662
       31.0350352400         6.2963020147
s   1 1.0 
       12.2608607300         4.6698272139
s   1 1.0 
        4.9987076000         2.3826123703
s   1 1.0 
        1.1703108200         0.8019291632
s   1 1.0 
        0.4647474100        -0.4011648063
s   1 1.0 
        0.1850453600         0.2010799377
p   4 1.0 
       63.2749548000         3.0898340730
       14.6270493800         3.3923831935
        4.4501223500         2.9482801524
        1.5275799600         1.7113350234
p   1 1.0 
        0.5293511800         0.6436057935
p   1 1.0 
        0.1747842100         0.1610897223
d   1 1.0 
        2.3140000000        12.3767310624
d   1 1.0 
        0.6450000000         1.3234257612
f   1 1.0 
        1.4280000000        12.7097950062

  5 0
s   3 1.0 
       34.0613410000         0.2556300129
        5.1235746000         0.4613599287
        1.1646626000         0.6811215012
s   1 1.0 
        0.3272304100         0.3083545312
s   1 1.0 
        0.1030724100         0.1296483265
p   1 1.0 
        0.8000000000         1.0784563492

  6 0
s   3 1.0 
       34.0613410000         0.2556300129
        5.1235746000         0.4613599287
        1.1646626000         0.6811215012
s   1 1.0 
        0.3272304100         0.3083545312
s   1 1.0 
        0.1030724100         0.1296483265
p   1 1.0 
        0.8000000000         1.0784563492

[5D]
[9G]
[MO]
 Sym=     1a
 Ene= -2.06474045642798E+01
 Spin= Alpha
 Occup= 2.000000
  1      -0.305692941627
  2      -0.288612647571
  3      -0.175863140816
  4      -0.017518632638
  5      -0.010377561569
  6      -0.002592154520
  7      -0.000336141714
  8      -0.001338264152
  9       0.000399200490
 10      -0.000083514673
 11       0.002433707303
 12      -0.001019823381
 13      -0.000150697418
 14      -0.000216974288
 15       0.000024053923
 16       0.000019256335
 17      -0.000009175994
 18       0.000041881999
 19       0.000040552256
 20       0.000008434916
 21      -0.000197210564
 22       0.000242701442
 23      -0.000370075050
 24      -0.000163833832
 25      -0.000150227559
 26      -0.000002117706
 27      -0.000018028570
 28      -0.000011440142
 29       0.000073856298
 30       0.000016501405
 31      -0.000044063260
 32       0.000012797690
 33      -0.000000199829
 34       0.000000726083
 35      -0.000003175444
 36       0.000001000762
 37      -0.000029783343
 38      -0.000008198250
 39      -0.000168158305
 40       0.000052134137
 41      -0.000092203447
 42      -0.003736978587
 43       0.001156861289
 44      -0.002048339336
 45       0.001489484421
 46      -0.000461911355
 47       0.000816756462
 48      -0.000051940948
 49       0.000007046131
 50       0.000149112496
 51       0.000183388957
 52       0.000208364610
 53      -0.000477320006
 54       0.000058664529
 55       0.001403802008
 56       0.001717913402
 57       0.001947654448
 58       0.000248505721
 59       0.000013635120
 60       0.000026943503
 61      -0.000231177055
 62       0.000192174182
 63       0.000118054942
 64      -0.000118336609
 65      -0.000001218141
 66      -0.000001130711
 67      -0.000000703924
 68      -0.000001131619
 69      -0.000012334730
 70      -0.000006878546
 71       0.000018651859
 72      -0.000006382419
 73       0.000010468759
 74      -0.000296750051
 75       0.000091447982
 76      -0.000162482702
 77      -0.000553402367
 78       0.000176357086
 79      -0.000305373680
 80       0.000001499109
 81       0.000000168025
 82      -0.000006139341
 83      -0.000007027979
 84      -0.000007857065
 85      -0.000037001488
 86       0.000002634823
 87       0.000115095500
 88       0.000138306284
 89       0.000157806277
 90      -0.000003174082
 91       0.000007176985
 92       0.000003323180
 93       0.000022734979
 94      -0.000009551896
 95      -0.000015625294
 96       0.000027660558
 97       0.311160714305
 98       0.293774819994
 99       0.179009020094
100       0.017828555850
101       0.010540722861
102       0.002642008574
103       0.000788377870
104       0.001219613771
105      -0.000159899398
106      -0.001961864798
107      -0.001817753821
108      -0.000094396623
109       0.000051437873
110       0.000249760148
111      -0.000079297677
112      -0.000034538426
113       0.000011415787
114       0.000000264836
115       0.000011529352
116       0.000051310682
117       0.000307877717
118      -0.000260478084
119       0.000061507190
120      -0.000219310476
121      -0.000283874946
122      -0.000026483686
123       0.000033323430
124       0.000017080521
125      -0.000006869389
126      -0.000054511129
127       0.000000861305
128       0.000057393798
129      -0.000333799436
130      -0.000842367546
131       0.000185146806
132       0.000399346497
133       0.000031943095
134       0.000155988162
135       0.000340593311
136       0.000848783889
137      -0.000195222783
138       0.000278832775
139      -0.000250422166
140       0.000219173140
 Sym=     1a
 Ene= -2.06473789036584E+01
 Spin= Alpha
 Occup= 2.000000
  1       0.311163486489
  2       0.293772251207
  3       0.179027542494
  4       0.017638859533
  5       0.009295876645
  6       0.002835366178
  7       0.000317175467
  8       0.001305683016
  9      -0.000394030481
 10       0.000123679231
 11      -0.001890133654
 12       0.000816873407
 13       0.000141815858
 14       0.000031903777
 15       0.000047071033
 16      -0.000040710621
 17       0.000040090299
 18      -0.000057838214
 19      -0.000023734998
 20      -0.000008031766
 21       0.000242814312
 22      -0.000377129430
 23       0.000377048826
 24       0.000012207625
 25       0.000179157359
 26      -0.000032712353
 27       0.000020594169
 28       0.000008491171
 29      -0.000024175204
 30      -0.000050325673
 31       0.000018809788
 32       0.000024684101
 33      -0.000022548545
 34       0.000081960457
 35      -0.000358302106
 36       0.000112818330
 37      -0.003359530236
 38      -0.000924771248
 39      -0.000049375025
 40      -0.000116606403
 41       0.000026302169
 42      -0.001172238714
 43      -0.002762947740
 44       0.000621887526
 45       0.000432111970
 46       0.001021045924
 47      -0.000230289725
 48      -0.000140161842
 49       0.000195026672
 50      -0.000129254816
 51       0.000071376699
 52      -0.000012809126
 53      -0.000304352535
 54       0.000988583963
 55      -0.000365055407
 56       0.000741218029
 57      -0.000526506855
 58      -0.000067157651
 59       0.000092736231
 60       0.000088291950
 61      -0.000137406863
 62      -0.000071191713
 63      -0.000016377149
 64       0.000036317911
 65      -0.000137485018
 66      -0.000127612389
 67      -0.000079459826
 68      -0.000127642415
 69      -0.001391788306
 70      -0.000776158426
 71      -0.000020536162
 72      -0.000046463881
 73       0.000010111978
 74      -0.000111259612
 75      -0.000260955297
 76       0.000058444504
 77       0.000045044655
 78       0.000090179569
 79      -0.000017355457
 80      -0.000049241603
 81       0.000043114092
 82      -0.000041500310
 83      -0.000001147294
 84       0.000018008239
 85       0.000154894936
 86      -0.000163357535
 87       0.000133043544
 88      -0.000027147294
 89      -0.000033541476
 90       0.000018863799
 91      -0.000028171315
 92      -0.000025313588
 93       0.000042288085
 94       0.000023589017
 95       0.000000796536
 96      -0.000012809472
 97       0.305695762981
 98       0.288610032089
 99       0.175881994335
100       0.017325549126
101       0.009110467923
102       0.002788972170
103       0.000750373147
104       0.001142534917
105      -0.000144781739
106      -0.001512518311
107      -0.001328497680
108      -0.000102322881
109      -0.000083643225
110       0.000098674458
111      -0.000075262315
112      -0.000052445580
113       0.000041198068
114      -0.000021250802
115       0.000020570246
116       0.000041844301
117       0.000318823057
118      -0.000381112254
119       0.000134703486
120      -0.000277388400
121      -0.000150573013
122       0.000011355998
123       0.000027120015
124       0.000015277646
125      -0.000051949470
126      -0.000020212847
127       0.000030487117
128       0.000019688535
129       0.000386251979
130       0.000369530847
131      -0.000570137418
132      -0.000232735455
133      -0.000124441183
134      -0.000048098550
135       0.000380273840
136       0.000354542103
137      -0.000566764675
138       0.000075384498
139      -0.000219277851
140       0.000120554662
 Sym=     1a
 Ene= -2.05743820026448E+01
 Spin= Alpha
 Occup= 2.000000
  1      -0.000098652721
  2      -0.000101375142
  3      -0.000045005431
  4       0.000096787054
  5       0.000846704385
  6      -0.000010344757
  7       0.000025597316
  8       0.000002447637
  9       0.000009832474
 10      -0.000032945744
 11      -0.000402671175
 12       0.000148958057
 13      -0.000359473867
 14      -0.000435141187
 15       0.000023909033
 16       0.000025446184
 17      -0.000038271518
 18       0.000017118667
 19      -0.000024024091
 20      -0.000000789824
 21      -0.000065816590
 22       0.000121905156
 23       0.000040541279
 24       0.000191680999
 25       0.000055135073
 26       0.000039750371
 27      -0.000006851656
 28      -0.000016320240
 29      -0.000009238605
 30       0.000009740742
 31       0.000040012886
 32       0.000001115453
 33       0.000011594045
 34      -0.000004676226
 35       0.000191727870
 36      -0.000669767727
 37       0.003079893910
 38       0.001479099060
 39      -0.000221490500
 40      -0.000505891215
 41       0.000110895572
 42      -0.001963480510
 43      -0.004484445565
 44       0.000983199137
 45       0.000704688239
 46       0.001609516230
 47      -0.000352826805
 48       0.000107302788
 49       0.000027254622
 50       0.000075055989
 51       0.000131479105
 52      -0.000143954645
 53       0.000844320904
 54       0.000869384084
 55       0.000506764519
 56       0.001730559058
 57      -0.001699152726
 58      -0.000016397639
 59       0.000066236580
 60       0.000008152303
 61      -0.000108654667
 62      -0.000137946957
 63       0.000132285476
 64       0.000092724473
 65      -0.436202093479
 66      -0.411893451767
 67      -0.250857458749
 68      -0.025028044884
 69      -0.015182056256
 70      -0.003992695107
 71       0.000866890150
 72       0.001980007514
 73      -0.000434030993
 74      -0.001614443608
 75      -0.003687406362
 76       0.000808336317
 77       0.000029006235
 78       0.000066258444
 79      -0.000014518135
 80       0.000129256563
 81      -0.000005716522
 82       0.000095354478
 83       0.000117407788
 84      -0.000140069069
 85      -0.000370286356
 86      -0.000209798549
 87      -0.000244184498
 88      -0.000576725566
 89       0.000596870257
 90      -0.000020828919
 91       0.000018181601
 92       0.000032254686
 93      -0.000024830518
 94       0.000010326168
 95      -0.000041811056
 96      -0.000011400871
 97      -0.000098651999
 98      -0.000101374495
 99      -0.000045004897
100       0.000096785771
101       0.000846698839
102      -0.000010338031
103      -0.000017473237
104       0.000016101419
105      -0.000013905446
106      -0.000284748507
107      -0.000322848525
108       0.000010178989
109      -0.000062720968
110      -0.000529215089
111       0.000187454647
112       0.000022008943
113      -0.000037894820
114       0.000027356218
115      -0.000011576600
116       0.000013426483
117      -0.000009644400
118       0.000115946238
119      -0.000126152382
120      -0.000011045596
121      -0.000176197782
122      -0.000014699423
123      -0.000012276545
124      -0.000023378164
125       0.000034366674
126      -0.000029916142
127       0.000019038383
128       0.000018001998
129      -0.000083947519
130       0.000289465002
131      -0.000097488606
132      -0.000030273106
133       0.000013423865
134      -0.000018235988
135      -0.000083947196
136       0.000289463103
137      -0.000097486372
138       0.000033217793
139      -0.000006703382
140       0.000016756790
 Sym=     1a
 Ene= -1.14545494609107E+01
 Spin= Alpha
 Occup= 2.000000
  1       0.000082297341
  2       0.000086350120
  3       0.000118576913
  4      -0.000682466177
  5      -0.001177637714
  6      -0.001203401499
  7       0.000187592737
  8      -0.000288480382
  9       0.000196029662
 10      -0.000491122374
 11       0.000638475660
 12      -0.000465974894
 13      -0.000101445768
 14      -0.000618067948
 15       0.000207077249
 16      -0.000011367345
 17      -0.000004531184
 18       0.000031884449
 19       0.000031842382
 20       0.000049592526
 21      -0.000011668556
 22       0.000142578258
 23      -0.000393709488
 24      -0.000299590430
 25      -0.000415033403
 26       0.000045756960
 27       0.000009727818
 28       0.000022642950
 29       0.000045676222
 30       0.000059440303
 31      -0.000074417330
 32       0.000027443516
 33      -0.467696671701
 34      -0.403863060717
 35      -0.227670200487
 36      -0.019617515482
 37      -0.007004949541
 38      -0.001139934835
 39       0.000448022619
 40       0.001023312429
 41      -0.000224301242
 42      -0.000129943249
 43      -0.000296976335
 44       0.000064964850
 45       0.000094485024
 46       0.000215940265
 47      -0.000047240383
 48       0.000504170336
 49      -0.000426695810
 50       0.000423742458
 51       0.000028145212
 52      -0.000196594371
 53       0.000368833295
 54      -0.000143318328
 55       0.000288381015
 56       0.000200027587
 57      -0.000289848133
 58      -0.000090911908
 59      -0.000117177594
 60       0.000206057305
 61       0.000228969218
 62       0.000598084473
 63      -0.000807923967
 64      -0.000434813597
 65       0.000161927175
 66       0.000208165255
 67       0.000100119522
 68      -0.000129217504
 69      -0.000717535970
 70      -0.001186186019
 71       0.000108936840
 72       0.000248799613
 73      -0.000054550976
 74      -0.000068969256
 75      -0.000157521529
 76       0.000034531006
 77       0.000278453081
 78       0.000635953529
 79      -0.000139437620
 80       0.000008063770
 81       0.000012993336
 82       0.000004240046
 83       0.000021512452
 84      -0.000020284812
 85       0.000093479187
 86      -0.000004725115
 87       0.000069038317
 88       0.000084281400
 89      -0.000100786197
 90       0.000099968349
 91      -0.000086330591
 92      -0.000155097885
 93       0.000117584098
 94      -0.000052167117
 95       0.000203602403
 96       0.000056522116
 97       0.000082297786
 98       0.000086350432
 99       0.000118577736
100      -0.000682469362
101      -0.001177647771
102      -0.001203408274
103      -0.000363711049
104      -0.000113713860
105      -0.000107813410
106       0.000862409352
107       0.000209399680
108       0.000280000164
109      -0.000398559414
110      -0.000523887187
111       0.000043306909
112       0.000009991085
113      -0.000006777576
114      -0.000031437960
115      -0.000045176180
116      -0.000038272268
117      -0.000209442503
118       0.000163372654
119       0.000192609380
120       0.000413537319
121       0.000398514466
122      -0.000046015500
123      -0.000042325185
124      -0.000011332333
125       0.000010346901
126       0.000033033645
127      -0.000030545085
128      -0.000091885452
129       0.000090038245
130       0.000462928602
131       0.000227097152
132      -0.000084230629
133      -0.000075184116
134      -0.000005211623
135       0.000090038877
136       0.000462930205
137       0.000227093492
138       0.000005885149
139      -0.000103753137
140       0.000044445316
 Sym=     1a
 Ene= -1.52616490733892E+00
 Spin= Alpha
 Occup= 2.000000
  1       0.054471632288
  2       0.082099779923
  3       0.053819027345
  4      -0.183869549668
  5       0.261301934764
  6      -0.070531123810
  7       0.005522107712
  8      -0.044672952307
  9       0.020404922471
 10       0.004471344863
 11      -0.045222087137
 12       0.020182897545
 13      -0.001804212465
 14      -0.003738379926
 15       0.000749039354
 16       0.001235340411
 17      -0.001824532364
 18       0.001866948237
 19       0.000115235254
 20       0.000797397653
 21       0.003749206640
 22      -0.005382689707
 23       0.005813230758
 24       0.000714311779
 25       0.002424799969
 26      -0.000636974205
 27       0.000978732496
 28       0.000265413677
 29      -0.000968913645
 30      -0.002003484225
 31       0.001142574762
 32       0.001536148284
 33       0.059648422279
 34       0.081369397975
 35       0.055287315217
 36      -0.220686367050
 37       0.124973775235
 38      -0.007182468287
 39       0.002073450690
 40       0.004726861912
 41      -0.001042605076
 42       0.001136435963
 43       0.002592455876
 44      -0.000570619611
 45       0.000322772911
 46       0.000737317076
 47      -0.000161596600
 48       0.010306090638
 49      -0.006767744616
 50       0.008411556469
 51       0.002652768033
 52      -0.005709226240
 53       0.005338454422
 54      -0.003912396907
 55       0.004409002753
 56       0.000941810882
 57      -0.002605365189
 58      -0.001163495887
 59      -0.000808324288
 60       0.002407455315
 61       0.001743782991
 62       0.005709124347
 63      -0.008139862481
 64      -0.004210336847
 65       0.038090747292
 66       0.057384204861
 67       0.037470531319
 68      -0.129929326430
 69       0.163324672856
 70      -0.046666161912
 71       0.021089520926
 72       0.048166765712
 73      -0.010560417796
 74       0.015975270764
 75       0.036486068668
 76      -0.007999610199
 77       0.001592823797
 78       0.003637823923
 79      -0.000797622956
 80       0.001685358550
 81       0.000452646900
 82       0.001175838168
 83       0.002091114879
 84      -0.002282293279
 85       0.003276130422
 86       0.000276603832
 87       0.002362996424
 88       0.003423657405
 89      -0.003914716224
 90       0.000410921568
 91      -0.000396072407
 92      -0.000623784105
 93       0.000554110955
 94      -0.000098406279
 95       0.000705628169
 96       0.000151496876
 97       0.054471976227
 98       0.082100297429
 99       0.053819371606
100      -0.183870728898
101       0.261303588041
102      -0.070531641304
103      -0.038529328140
104      -0.030708811216
105      -0.003874386061
106      -0.038157145775
107      -0.031709064571
108      -0.003312254371
109      -0.001510365057
110      -0.003831594127
111       0.000910836281
112       0.001628495629
113      -0.001865720932
114       0.000702100992
115      -0.001301450279
116      -0.000818599530
117       0.005032430627
118      -0.005517124962
119       0.002011280809
120      -0.003909590869
121      -0.002849629224
122       0.000024294022
123       0.000852206605
124       0.000252669655
125      -0.001986367783
126      -0.001340194948
127       0.001753019932
128       0.000668319533
129      -0.040925532925
130      -0.027018665515
131       0.001545763847
132       0.007766171892
133       0.001864733270
134       0.002530409748
135      -0.040925746848
136      -0.027018815948
137       0.001545747306
138      -0.004439330663
139       0.005734042156
140      -0.004196118050
 Sym=     1a
 Ene= -1.41802670386125E+00
 Spin= Alpha
 Occup= 2.000000
  1       0.068432524240
  2       0.103240089094
  3       0.068141824304
  4      -0.235194713939
  5       0.330217199893
  6      -0.106552190589
  7      -0.020477703376
  8      -0.042691998918
  9       0.008608162754
 10      -0.018491341802
 11      -0.047646176051
 12       0.011452228549
 13       0.001560020491
 14      -0.003137040663
 15       0.001928795025
 16       0.001599778103
 17      -0.001610608965
 18       0.001361633973
 19      -0.000202393200
 20      -0.000415427208
 21       0.004772951114
 22      -0.004762977222
 23       0.006155668915
 24       0.001957377923
 25       0.000467620429
 26      -0.000167231322
 27       0.001140134506
 28       0.000331396606
 29      -0.002027860969
 30      -0.001919821331
 31       0.001917689320
 32       0.001265956386
 33       0.000000239142
 34       0.000000329158
 35       0.000000219952
 36      -0.000000849536
 37       0.000000653745
 38      -0.000000028847
 39      -0.104807283063
 40       0.033223425552
 41      -0.057762382645
 42      -0.050330131810
 43       0.015954642590
 44      -0.027738395859
 45      -0.000230372563
 46       0.000073068278
 47      -0.000126931474
 48      -0.002678416718
 49       0.000281402627
 50       0.007939692210
 51       0.009656879783
 52       0.011016254904
 53      -0.002526183509
 54       0.000265921541
 55       0.007490238583
 56       0.009110145531
 57       0.010393217848
 58       0.002212689960
 59       0.000864641579
 60       0.000618406657
 61      -0.000138320202
 62       0.001004692599
 63      -0.000336918459
 64       0.001532437813
 65       0.000000613831
 66       0.000000925239
 67       0.000000609166
 68      -0.000002120411
 69       0.000002769631
 70      -0.000000970559
 71      -0.013414725524
 72       0.004253308204
 73      -0.007393595706
 74      -0.013102885267
 75       0.004154367402
 76      -0.007221678513
 77      -0.002677917741
 78       0.000849003727
 79      -0.001475930580
 80      -0.000179968006
 81       0.000018986533
 82       0.000533788194
 83       0.000649228279
 84       0.000740635281
 85      -0.000731202461
 86       0.000077098231
 87       0.002168505541
 88       0.002637480059
 89       0.003008897730
 90       0.000292928976
 91       0.000355043318
 92       0.000205484163
 93       0.000591944034
 94      -0.000093957525
 95      -0.000489050615
 96       0.001031698124
 97      -0.068432701291
 98      -0.103240355806
 99      -0.068142004803
100       0.235195335495
101      -0.330218144666
102       0.106552578983
103       0.017344043202
104       0.043685657301
105      -0.010333502475
106       0.022656097168
107       0.046326260309
108      -0.009155154917
109       0.003592241318
110       0.001503730682
111       0.000910854238
112      -0.001591584293
113       0.001609485232
114      -0.001387020074
115       0.000171392659
116       0.000379746227
117      -0.005879497798
118       0.004878741602
119      -0.002877843702
120       0.002028945609
121       0.004079283519
122       0.000580940979
123      -0.001124666110
124      -0.000291548292
125       0.001630959800
126       0.002245224653
127      -0.001711035425
128      -0.001483196282
129      -0.061474692486
130      -0.048528193091
131      -0.001459184799
132       0.011610423079
133       0.004141428897
134       0.003235460447
135       0.061474754756
136       0.048528285678
137       0.001459173698
138       0.005595876520
139      -0.009596070074
140       0.006246908438
 Sym=     1a
 Ene= -1.38086304816232E+00
 Spin= Alpha
 Occup= 2.000000
  1       0.035082920140
  2       0.053022885653
  3       0.034855780299
  4      -0.119893356150
  5       0.178118677997
  6      -0.062351533367
  7       0.001800734749
  8      -0.008494579800
  9       0.004198261995
 10       0.004722356128
 11      -0.016408111771
 12       0.008634978773
 13       0.000624536786
 14      -0.000537065914
 15       0.000481849515
 16       0.000630049960
 17      -0.001273589889
 18       0.000445008005
 19      -0.000966498619
 20       0.000245420119
 21       0.001405989127
 22      -0.004231155307
 23       0.003095008397
 24      -0.001325962056
 25       0.003347305015
 26      -0.000064047295
 27       0.000548988782
 28      -0.000106280268
 29      -0.000389509790
 30      -0.001414687209
 31       0.001174577051
 32       0.001306829053
 33      -0.022073112913
 34      -0.031012977063
 35      -0.019062713680
 36       0.073239862270
 37      -0.060745165119
 38       0.000635154136
 39       0.072044521959
 40       0.164543960668
 41      -0.036077530475
 42       0.028434536195
 43       0.064942945322
 44      -0.014238979119
 45      -0.000650383315
 46      -0.001485797115
 47       0.000325373487
 48      -0.005801769853
 49      -0.007017380068
 50      -0.003348234720
 51      -0.013000687248
 52       0.012578184501
 53      -0.005599395190
 54      -0.000524458250
 55      -0.004032113965
 56      -0.005906206888
 57       0.006735550598
 58       0.001723529596
 59      -0.001184858601
 60      -0.002774925202
 61       0.001505986095
 62      -0.001753780616
 63       0.004476607008
 64       0.001569471302
 65      -0.082145595353
 66      -0.123897307614
 67      -0.081685027986
 68       0.286056830060
 69      -0.368717167049
 70       0.136133237416
 71      -0.033675792859
 72      -0.076914553100
 73       0.016861694953
 74      -0.029367387613
 75      -0.067074044223
 76       0.014704529338
 77      -0.003987685401
 78      -0.009107494018
 79       0.001996823600
 80      -0.002920143915
 81      -0.000807705758
 82      -0.002034150338
 83      -0.003648179148
 84       0.003974663052
 85      -0.007038303177
 86      -0.002007139791
 87      -0.004895199313
 88      -0.008857075449
 89       0.009632158474
 90      -0.000847104462
 91       0.000500581642
 92       0.001391112938
 93      -0.000599615297
 94       0.001092398874
 95      -0.002460917669
 96      -0.000931907058
 97       0.035082040611
 98       0.053021557819
 99       0.034854904561
100      -0.119890320399
101       0.178114477412
102      -0.062350192427
103      -0.007894270923
104      -0.005420748459
105      -0.001146119553
106      -0.016189274023
107      -0.009778525461
108      -0.002891344934
109      -0.000885614823
110      -0.000058351867
111      -0.000350606397
112       0.000533608226
113      -0.001263246896
114       0.000731526813
115      -0.000617956495
116       0.000643249055
117       0.002227914137
118      -0.004317063530
119       0.000659839889
120      -0.004287572215
121      -0.000030841633
122       0.000078962532
123       0.000323303687
124      -0.000210781429
125      -0.001112451401
126      -0.001084072535
127       0.001673017474
128       0.000436040747
129      -0.026683405925
130      -0.020292467801
131       0.001134281062
132       0.005389273386
133       0.002377155210
134       0.001317827726
135      -0.026682584595