[Molden Format]
[Title]
 Molden file created by orca_2mkl for BaseName=/data01/Nikolayandreadi/heavy/CC/NpO2_F

[Atoms] AU
Np   1  93         -0.9162412749         0.0001946418        -0.0080785792 
O    2   8         -1.0319510958        -3.2358101845         0.0072149744 
O    3   8         -1.0305564780         3.2362259242         0.0080615717 
F    4   9          3.0751267713        -0.0006103815        -0.0071979668 
[GTO]
  1 0
s   9 1.0 
 60212393.7825810015     16460.1280594584
 27369269.9011729993     -6013.5086094560
 12440577.2278060000      9343.9211279925
  5654807.8308210000       308.3663916485
  2570367.1958280001      4334.3325603517
  1168348.7253759999      1972.8827387435
   531067.6024440000      2728.3967901233
   241394.3647470000      2034.2792369220
   109724.7112490000      2086.3436128711
s   1 1.0 
    49874.8687490000      2378.6000111367
s   1 1.0 
    22670.3948860000      1316.7532712607
s   1 1.0 
    10304.7249480000       728.9326365214
s   1 1.0 
     4683.9658860000       403.5249429308
s   1 1.0 
     2129.0754030000       223.3846742626
s   1 1.0 
      967.7615470000       123.6620277677
s   1 1.0 
      439.8916120000        68.4572348252
s   1 1.0 
      199.9507330000        37.8967827997
s   1 1.0 
       90.8866970000        20.9790265547
s   1 1.0 
       41.3121350000        11.6136389953
s   1 1.0 
       18.7782430000         6.4291166887
s   1 1.0 
        8.5355650000         3.5590517075
s   1 1.0 
        3.8798020000         1.9702315267
s   1 1.0 
        1.7635460000         1.0906871246
s   1 1.0 
        0.8016120000         0.6037862931
s   1 1.0 
        0.3643690000         0.3342459531
s   1 1.0 
        0.1656220000         0.1850327531
s   1 1.0 
        0.0752830000         0.1024313225
s   1 1.0 
        0.0342190000         0.0567035929
s   1 1.0 
        0.0155540000         0.0313900251
p   8 1.0 
   859302.8310040000    131775.7051530663
   358042.8462520000     11325.8407160590
   149184.5192720000     38266.0812549783
    62160.2163630000     19009.8155098714
    25900.0901510000     18342.5702252260
    10791.7042300000     14732.4699955005
     4496.5434290000     13756.3118120073
     1873.5597620000     12431.3284313481
p   1 1.0 
      780.6499010000      5881.8029941886
p   1 1.0 
      325.2707920000      1969.0031994381
p   1 1.0 
      135.5294970000       659.1471384521
p   1 1.0 
       56.4706240000       220.6573109288
p   1 1.0 
       23.5294270000        73.8676489948
p   1 1.0 
        9.8039280000        24.7280704473
p   1 1.0 
        4.0849700000         8.2780143929
p   1 1.0 
        1.7020710000         2.7711636791
p   1 1.0 
        0.7091960000         0.9276794468
p   1 1.0 
        0.2954980000         0.3105512418
p   1 1.0 
        0.1231240000         0.1039605296
p   1 1.0 
        0.0513020000         0.0348023010
d   7 1.0 
    42129.4422870000     56906.5227948507
    16851.7769150000     28000.6591442440
     6740.7107660000     31059.1451506409
     2696.2843060000     28550.8495479176
     1078.5137230000     30419.9475915360
      431.4054890000     27516.9214778059
      172.5621960000     18646.3556919396
d   1 1.0 
       69.0248780000      4712.2678372904
d   1 1.0 
       27.6099510000       948.0580852984
d   1 1.0 
       11.0439810000       190.7392068921
d   1 1.0 
        4.4175920000        38.3746907348
d   1 1.0 
        1.7670370000         7.7205805666
d   1 1.0 
        0.7068150000         1.5532993453
d   1 1.0 
        0.2827260000         0.3125072837
d   1 1.0 
        0.1130900000         0.0628727477
d   1 1.0 
        0.0452360000         0.0126493272
f   6 1.0 
     4574.1842730000     62886.0548377263
     1759.3016440000     54541.2436081452
      676.6544780000     60258.2175061621
      260.2517220000     58997.4055482529
      100.0968160000     42811.8352412536
       38.4987760000     17381.1576470009
f   1 1.0 
       14.8072210000      2452.2547560014
f   1 1.0 
        5.6950850000       285.6771815775
f   1 1.0 
        2.1904170000        33.2801582217
f   1 1.0 
        0.8424680000         3.8769951722
f   1 1.0 
        0.3240260000         0.4516528586
f   1 1.0 
        0.1246250000         0.0526152593

  2 0
s   6 1.0 
    27032.3826310000         1.4645050749
     4052.3871392000         1.8244031008
      922.3272271000         2.8547160967
      261.2407098900         4.3654874290
       85.3546413500         5.8940772662
       31.0350352400         6.2963020147
s   1 1.0 
       12.2608607300         4.6698272139
s   1 1.0 
        4.9987076000         2.3826123703
s   1 1.0 
        1.1703108200         0.8019291632
s   1 1.0 
        0.4647474100        -0.4011648063
s   1 1.0 
        0.1850453600         0.2010799377
p   4 1.0 
       63.2749548000         3.0898340730
       14.6270493800         3.3923831935
        4.4501223500         2.9482801524
        1.5275799600         1.7113350234
p   1 1.0 
        0.5293511800         0.6436057935
p   1 1.0 
        0.1747842100         0.1610897223
d   1 1.0 
        2.3140000000        12.3767310624
d   1 1.0 
        0.6450000000         1.3234257612
f   1 1.0 
        1.4280000000        12.7097950062

  3 0
s   6 1.0 
    27032.3826310000         1.4645050749
     4052.3871392000         1.8244031008
      922.3272271000         2.8547160967
      261.2407098900         4.3654874290
       85.3546413500         5.8940772662
       31.0350352400         6.2963020147
s   1 1.0 
       12.2608607300         4.6698272139
s   1 1.0 
        4.9987076000         2.3826123703
s   1 1.0 
        1.1703108200         0.8019291632
s   1 1.0 
        0.4647474100        -0.4011648063
s   1 1.0 
        0.1850453600         0.2010799377
p   4 1.0 
       63.2749548000         3.0898340730
       14.6270493800         3.3923831935
        4.4501223500         2.9482801524
        1.5275799600         1.7113350234
p   1 1.0 
        0.5293511800         0.6436057935
p   1 1.0 
        0.1747842100         0.1610897223
d   1 1.0 
        2.3140000000        12.3767310624
d   1 1.0 
        0.6450000000         1.3234257612
f   1 1.0 
        1.4280000000        12.7097950062

  4 0
s   6 1.0 
    35479.1004410000         1.9229128581
     5318.4728983000         2.2734773358
     1210.4810975000         3.4747482552
      342.8551814000         5.2879612972
      112.0194318100         7.1666332516
       40.7147402500         7.7556346254
s   1 1.0 
       16.0396781100         5.7122450312
s   1 1.0 
        6.5038186700         2.9025947842
s   1 1.0 
        1.5440477500         0.9872011154
s   1 1.0 
        0.6122345300        -0.4932856223
s   1 1.0 
        0.2402798000         0.2445952611
p   4 1.0 
       80.2339004800         4.2755032106
       18.5940107400         4.7314752302
        5.6867902700         4.0864798013
        1.9511006300         2.2989954518
p   1 1.0 
        0.6697021100         0.8635593126
p   1 1.0 
        0.2165130000         0.2105208234
d   1 1.0 
        3.1070000000        20.7284714039
d   1 1.0 
        0.8550000000         2.1672588463
f   1 1.0 
        1.9170000000        24.6547062912

[5D]
[7F]
[9G]
[MO]
 Sym=     1a
 Ene= -4.37341511034112E+03
 Spin= Alpha
 Occup= 1.000000
  1      -0.087306435902
  2      -0.066328201781
  3      -0.113242598627
  4      -0.178787863783
  5      -0.264676387828
  6      -0.301328014868
  7      -0.190680864797
  8      -0.031596867944
  9      -0.000892992483
 10       0.000634348049
 11      -0.000462369842
 12       0.000341692635
 13      -0.000243199354
 14       0.000164857369
 15      -0.000111062454
 16       0.000075998153
 17      -0.000051889213
 18       0.000032221730
 19      -0.000009411849
 20       0.000004719623
 21      -0.000001355986
 22       0.000000156250
 23      -0.000000000035
 24       0.000000001142
 25      -0.000000010380
 26       0.000000000001
 27      -0.000000000893
 28       0.000000000284
 29      -0.000000000001
 30      -0.000000000389
 31      -0.000000005760
 32       0.000000000002
 33       0.000000000079
 34       0.000000009956
 35      -0.000000000003
 36      -0.000000000222
 37      -0.000000014635
 38       0.000000000005
 39       0.000000000526
 40       0.000000022636
 41      -0.000000000007
 42      -0.000000000813
 43      -0.000000031258
 44       0.000000000010
 45       0.000000001554
 46       0.000000043665
 47      -0.000000000014
 48      -0.000000003505
 49      -0.000000049604
 50       0.000000000024
 51       0.000000009415
 52      -0.000000094516
 53      -0.000000000018
 54      -0.000000020971
 55       0.000000450239
 56       0.000000000104
 57       0.000000052340
 58      -0.000000221569
 59       0.000000000034
 60      -0.000000001876
 61      -0.000000003846
 62       0.000000000008
 63       0.000000000003
 64      -0.000000013745
 65       0.000000000011
 66       0.000000021070
 67      -0.000000000006
 68      -0.000000000012
 69       0.000000052091
 70      -0.000000000026
 71       0.000000043924
 72       0.000000000012
 73      -0.000000000015
 74       0.000000034932
 75      -0.000000000013
 76      -0.000000095647
 77      -0.000000000014
 78       0.000000000035
 79      -0.000000102628
 80       0.000000000043
 81       0.000000190330
 82       0.000000000023
 83      -0.000000000072
 84       0.000000220061
 85      -0.000000000095
 86      -0.000000346505
 87      -0.000000000035
 88       0.000000000131
 89      -0.000000400868
 90       0.000000000175
 91       0.000000456429
 92      -0.000000000017
 93      -0.000000000162
 94       0.000000445847
 95      -0.000000000197
 96      -0.000000130605
 97       0.000000000340
 98       0.000000000001
 99       0.000000221810
100      -0.000000000090
101      -0.000001902945
102      -0.000000002091
103       0.000000000802
104      -0.000002826595
105       0.000000001230
106       0.000000466783
107       0.000000000085
108      -0.000000000177
109       0.000000543901
110      -0.000000000237
111       0.000000000164
112       0.000000002968
113      -0.000000000001
114       0.000000000196
115       0.000000000000
116       0.000000006708
117      -0.000000000004
118      -0.000000000494
119      -0.000000008973
120       0.000000000002
121      -0.000000000593
122      -0.000000000001
123      -0.000000019478
124       0.000000000012
125       0.000000001073
126       0.000000018387
127      -0.000000000004
128       0.000000001290
129       0.000000000002
130       0.000000042016
131      -0.000000000026
132      -0.000000002081
133      -0.000000035491
134       0.000000000008
135      -0.000000002500
136      -0.000000000005
137      -0.000000083903
138       0.000000000052
139       0.000000003144
140       0.000000071272
141      -0.000000000014
142       0.000000003689
143       0.000000000010
144       0.000000161837
145      -0.000000000101
146       0.000000002295
147      -0.000000143691
148       0.000000000032
149       0.000000003602
150      -0.000000000009
151      -0.000000229552
152       0.000000000135
153      -0.000000016249
154       0.000000020833
155      -0.000000000015
156      -0.000000021586
157      -0.000000000012
158      -0.000000108712
159       0.000000000086
160       0.000000018166
161      -0.000000086100
162       0.000000177000
163      -0.000000829577
164      -0.000001888706
165      -0.000004996657
166      -0.000000001620
167      -0.000000071117
168      -0.000000000456
169       0.000000036194
170       0.000000621223
171       0.000000000115
172      -0.000000038926
173      -0.000001853023
174      -0.000000005805
175      -0.000000028672
176       0.000000000086
177      -0.000000000551
178      -0.000000036122
179       0.000000000368
180      -0.000000185235
181      -0.000000000465
182      -0.000000002434
183      -0.000000357506
184       0.000000049235
185       0.000000000065
186      -0.000000000840
187      -0.000000048152
188       0.000000000123
189      -0.000000000040
190       0.000000012818
191       0.000000069236
192       0.000000018167
193      -0.000000086102
194       0.000000177002
195      -0.000000829597
196      -0.000001888805
197      -0.000004996972
198      -0.000000001588
199       0.000000071111
200      -0.000000000437
201       0.000000035925
202      -0.000000621263
203      -0.000000000048
204      -0.000000038141
205       0.000001853123
206      -0.000000005320
207      -0.000000028676
208       0.000000000086
209       0.000000000573
210      -0.000000036127
211      -0.000000000338
212      -0.000000185230
213      -0.000000000477
214       0.000000002612
215      -0.000000357549
216      -0.000000048924
217       0.000000000096
218      -0.000000000819
219       0.000000048143
220       0.000000000165
221       0.000000000045
222       0.000000012727
223      -0.000000069242
224       0.000000009028
225      -0.000000038873
226       0.000000064514
227      -0.000000076307
228      -0.000000098374
229      -0.000000481064
230       0.000000003965
231      -0.000000000000
232       0.000000000121
233       0.000000184120
234      -0.000000000039
235      -0.000000000369
236       0.000000434175
237      -0.000000000096
238       0.000000001005
239       0.000000007656
240      -0.000000000090
241       0.000000000003
242      -0.000000036539
243       0.000000000014
244       0.000000023778
245       0.000000000236
246      -0.000000000009
247       0.000000023969
248      -0.000000000008
249       0.000000000077
250       0.000000053000
251      -0.000000000011
252      -0.000000000034
253       0.000000000000
254       0.000000070205
255      -0.000000000043
 Sym=     1a
 Ene= -8.29069881330794E+02
 Spin= Alpha
 Occup= 1.000000
  1       0.037061823429
  2       0.030425915981
  3       0.050706223312
  4       0.087784205151
  5       0.139377529983
  6       0.176535692961
  7       0.067157655195
  8      -0.374927269466
  9      -0.607144004901
 10      -0.165187816813
 11       0.001954567628
 12      -0.001581055056
 13       0.000815118796
 14      -0.000403060365
 15       0.000217693602
 16      -0.000138721399
 17       0.000092005034
 18      -0.000056080682
 19       0.000016416665
 20      -0.000008182350
 21       0.000002345244
 22       0.000000088947
 23      -0.000000000063
 24      -0.000000016540
 25       0.000000388412
 26      -0.000000000159
 27      -0.000000022581
 28       0.000000814361
 29      -0.000000000302
 30      -0.000000053347
 31       0.000000536379
 32      -0.000000000200
 33      -0.000000015228
 34      -0.000000094441
 35       0.000000000026
 36       0.000000010006
 37       0.000000028746
 38      -0.000000000021
 39      -0.000000006617
 40      -0.000000089936
 41       0.000000000032
 42       0.000000003750
 43       0.000000070501
 44      -0.000000000026
 45      -0.000000003760
 46      -0.000000042443
 47       0.000000000017
 48       0.000000007399
 49       0.000000061753
 50      -0.000000000018
 51      -0.000000017060
 52       0.000000172117
 53      -0.000000000012
 54       0.000000035745
 55      -0.000000772765
 56      -0.000000000216
 57      -0.000000089569
 58       0.000000380997
 59      -0.000000000055
 60       0.000000003222
 61      -0.000000454498
 62       0.000000000431
 63       0.000000000331
 64      -0.000001729240
 65       0.000000001081
 66      -0.000001687339
 67       0.000000000663
 68       0.000000000729
 69      -0.000002650102
 70       0.000000001198
 71       0.000000376536
 72      -0.000000000437
 73      -0.000000000167
 74       0.000000625696
 75      -0.000000000306
 76      -0.000000217494
 77       0.000000000248
 78       0.000000000098
 79      -0.000000369438
 80       0.000000000173
 81      -0.000000066978
 82      -0.000000000130
 83       0.000000000020
 84      -0.000000035283
 85       0.000000000012
 86       0.000000510919
 87       0.000000000101
 88      -0.000000000193
 89       0.000000590016
 90      -0.000000000255
 91      -0.000000648319
 92       0.000000000020
 93       0.000000000222
 94      -0.000000577734
 95       0.000000000253
 96       0.000000163383
 97      -0.000000000575
 98       0.000000000020
 99      -0.000000440098
100       0.000000000184
101       0.000003286546
102       0.000000003600
103      -0.000000001383
104       0.000004866620
105      -0.000000002118
106      -0.000000807466
107      -0.000000000140
108       0.000000000306
109      -0.000000939531
110       0.000000000410
111       0.000000001980
112       0.000000009449
113       0.000000000008
114       0.000000002395
115       0.000000000013
116       0.000000098675
117      -0.000000000078
118       0.000000000343
119       0.000000031105
120      -0.000000000012
121       0.000000000353
122      -0.000000000006
123       0.000000006836
124       0.000000000006
125      -0.000000001860
126      -0.000000052723
127       0.000000000015
128      -0.000000002177
129       0.000000000000
130      -0.000000071782
131       0.000000000038
132       0.000000003234
133       0.000000066145
134      -0.000000000017
135       0.000000003847
136       0.000000000006
137       0.000000131491
138      -0.000000000077
139      -0.000000004760
140      -0.000000118824
141       0.000000000026
142      -0.000000005528
143      -0.000000000014
144      -0.000000257016
145       0.000000000158
146      -0.000000004160
147       0.000000242007
148      -0.000000000041
149      -0.000000006463
150       0.000000000013
151       0.000000375448
152      -0.000000000237
153       0.000000027816
154      -0.000000033787
155       0.000000000029
156       0.000000036953
157       0.000000000023
158       0.000000196982
159      -0.000000000158
160      -0.000000026639
161       0.000000133209
162      -0.000000276855
163       0.000001369005
164       0.000003216114
165       0.000008572423
166       0.000000002672
167       0.000000106119
168       0.000000000807
169      -0.000000057623
170      -0.000001050319
171      -0.000000000224
172       0.000000062477
173       0.000003187886
174       0.000000009756
175       0.000000055756
176      -0.000000000144
177       0.000000001011
178       0.000000073602
179      -0.000000001336
180       0.000000296922
181       0.000000000775
182       0.000000003908
183       0.000000576489
184      -0.000000080195
185       0.000000000126
186       0.000000000709
187       0.000000059308
188       0.000000000098
189       0.000000000045
190      -0.000000018703
191      -0.000000088446
192      -0.000000026638
193       0.000000133206
194      -0.000000276848
195       0.000001369008
196       0.000003216224
197       0.000008573010
198       0.000000002624
199      -0.000000106103
200       0.000000000780
201      -0.000000057166
202       0.000001050345
203       0.000000000050
204       0.000000061127
205      -0.000003188072
206       0.000000008920
207       0.000000055763
208      -0.000000000144
209      -0.000000001056
210       0.000000073611
211       0.000000001275
212       0.000000296907
213       0.000000000794
214      -0.000000004193
215       0.000000576545
216       0.000000079691
217       0.000000000089
218       0.000000000683
219      -0.000000059290
220       0.000000000045
221      -0.000000000052
222      -0.000000018586
223       0.000000088450
224      -0.000000014568
225       0.000000068022
226      -0.000000114517
227       0.000000142984
228       0.000000176361
229       0.000000814219
230      -0.000000011071
231       0.000000000002
232      -0.000000000209
233      -0.000000298758
234       0.000000000063
235       0.000000000653
236      -0.000000737739
237       0.000000000162
238      -0.000000001732
239      -0.000000016290
240       0.000000000159
241      -0.000000000005
242       0.000000067260
243      -0.000000000027
244      -0.000000029870
245      -0.000000000423
246       0.000000000014
247      -0.000000058070
248       0.000000000022
249      -0.000000000136
250      -0.000000094807
251       0.000000000020
252       0.000000000065
253      -0.000000000001
254      -0.000000125015
255       0.000000000076
 Sym=     1a
 Ene= -6.93398690558170E+02
 Spin= Alpha
 Occup= 1.000000
  1      -0.000000067463
  2      -0.000000056649
  3      -0.000000092853
  4      -0.000000167997
  5      -0.000000260799
  6      -0.000000318614
  7      -0.000000046552
  8       0.000001002770
  9       0.000001325207
 10      -0.000001136396
 11       0.000001130031
 12      -0.000001572311
 13       0.000003368786
 14      -0.000006564003
 15       0.000013799061
 16      -0.000030097175
 17       0.000050796647
 18      -0.000065667317
 19       0.000031409556
 20      -0.000014666710
 21       0.000003648065
 22       0.179934501094
 23      -0.000050444238
 24      -0.000203626974
 25       0.304178852296
 26      -0.000085275882
 27      -0.000344231196
 28       0.456387071967
 29      -0.000127947167
 30      -0.000516479221
 31       0.238896833075
 32      -0.000066974614
 33      -0.000270357846
 34       0.007808831865
 35      -0.000002188172
 36      -0.000008832305
 37       0.004379667640
 38      -0.000001229377
 39      -0.000004965661
 40      -0.003032108090
 41       0.000000852732
 42       0.000003449383
 43       0.001875165209
 44      -0.000000530338
 45      -0.000002154707
 46      -0.001147602571
 47       0.000000330040
 48       0.000001358564
 49       0.000712487146
 50      -0.000000215786
 51      -0.000000927267
 52      -0.000435186936
 53       0.000000145500
 54       0.000000708181
 55       0.000246556451
 56      -0.000000091147
 57      -0.000000699700
 58      -0.000048192398
 59       0.000000011037
 60       0.000000000527
 61      -0.000000160803
 62       0.000000017781
 63       0.000000000018
 64       0.000000094816
 65       0.000000000047
 66       0.000000271178
 67      -0.000000013519
 68       0.000000000008
 69      -0.000000474544
 70       0.000000000121
 71      -0.000000670500
 72       0.000000005816
 73      -0.000000000039
 74       0.000001420749
 75      -0.000000000511
 76       0.000001281266
 77      -0.000000008174
 78       0.000000000081
 79      -0.000002791269
 80       0.000000001045
 81      -0.000002437006
 82       0.000000012399
 83      -0.000000000161
 84       0.000005390112
 85      -0.000000002051
 86       0.000004685526
 87      -0.000000020643
 88       0.000000000360
 89      -0.000010758479
 90       0.000000004128
 91      -0.000008354161
 92       0.000000044937
 93      -0.000000001124
 94       0.000022778594
 95      -0.000000008761
 96       0.000009658704
 97      -0.000000090191
 98       0.000000003304
 99      -0.000041186431
100       0.000000015672
101      -0.000006723003
102       0.000000162088
103      -0.000000007606
104       0.000068764281
105      -0.000000026206
106       0.000001644860
107       0.000000000947
108       0.000000000626
109      -0.000007537600
110       0.000000003084
111       0.000000000435
112      -0.000000077503
113      -0.000000000051
114      -0.000000000200
115      -0.000000000134
116      -0.000000914452
117       0.000000000804
118      -0.000000001208
119       0.000000413995
120      -0.000000000151
121      -0.000000002253
122       0.000000000143
123       0.000001407868
124      -0.000000000899
125       0.000000004043
126      -0.000001305822
127       0.000000000487
128       0.000000007506
129      -0.000000000001
130      -0.000001664437
131       0.000000000746
132      -0.000000010502
133       0.000003174233
134      -0.000000001171
135      -0.000000018503
136      -0.000000000269
137       0.000002365358
138      -0.000000000618
139       0.000000031302
140      -0.000007607387
141       0.000000003104
142       0.000000051303
143       0.000000000824
144      -0.000004544906
145       0.000000000355
146      -0.000000123574
147       0.000015901822
148      -0.000000009967
149      -0.000000179847
150      -0.000000002501
151       0.000004459850
152       0.000000006887
153       0.000000259290
154      -0.000020473704
155       0.000000010188
156       0.000000389251
157       0.000000003564
158      -0.000003187458
159      -0.000000007249
160      -0.000000233822
161       0.000001091981
162      -0.000002041336
163       0.000006924424
164       0.000020083060
165       0.000042445446
166      -0.000001367901
167       0.000000469957
168       0.000000014761
169       0.000007177621
170      -0.000006741396
171      -0.000000046374
172      -0.000015669422
173       0.000008107934
174       0.000000243190
175      -0.000000191838
176      -0.000000002553
177       0.000000002379
178       0.000000284583
179      -0.000000134550
180       0.000001328516
181      -0.000000015631
182      -0.000000012554
183       0.000000923053
184       0.000004713479
185       0.000000018140
186      -0.000000215307
187      -0.000000854609
188       0.000000019187
189      -0.000000010107
190       0.000000625175
191       0.000000481327
192      -0.000000234069
193       0.000001093124
194      -0.000002043472
195       0.000006933670
196       0.000020114767
197       0.000042491863
198      -0.000001368082
199      -0.000000469596
200       0.000000014619
201       0.000007180095
202       0.000006752253
203      -0.000000044464
204      -0.000015673723
205      -0.000008107186
206       0.000000240925
207      -0.000000191541
208      -0.000000002519
209      -0.000000002359
210       0.000000285227
211       0.000000134273
212       0.000001329740
213      -0.000000016855
214       0.000000011639
215       0.000000921078
216      -0.000004713871
217       0.000000018697
218      -0.000000214955
219       0.000000856218
220       0.000000019714
221       0.000000010377
222       0.000000624495
223      -0.000000483958
224       0.000001689619
225      -0.000007942654
226       0.000014828330
227      -0.000036420370
228      -0.000056604553
229      -0.000079201295
230       0.000008862157
231      -0.000000001946
232      -0.000000001518
233      -0.000027430792
234       0.000000006094
235       0.000000007276
236       0.000020705588
237      -0.000000005208
238      -0.000000043550
239       0.000003299771
240      -0.000000002378
241       0.000000000006
242      -0.000005760337
243       0.000000002438
244      -0.000011538281
245       0.000000008185
246      -0.000000000023
247       0.000020152977
248      -0.000000008523
249      -0.000000000202
250       0.000002692461
251      -0.000000000565
252      -0.000000002189
253      -0.000000000017
254       0.000003363334
255      -0.000000002095
 Sym=     1a
 Ene= -6.93398315109822E+02
 Spin= Alpha
 Occup= 1.000000
  1       0.000000002851
  2       0.000000002364
  3       0.000000003799
  4       0.000000007026
  5       0.000000010008
  6       0.000000015606
  7       0.000000000408
  8      -0.000000024205
  9      -0.000000027565
 10      -0.000000036828
 11      -0.000000044458
 12       0.000000079760
 13      -0.000000096247
 14       0.000000114770
 15      -0.000000086956
 16      -0.000000136114
 17       0.000000601412
 18      -0.000001261966
 19       0.000003805310
 20      -0.000001055641
 21       0.000000236261
 22       0.000203620776
 23      -0.000023692415
 24       0.179934478382
 25       0.000344220026
 26      -0.000040051955
 27       0.304178685464
 28       0.000516467008
 29      -0.000060093636
 30       0.456387292267
 31       0.000270339119
 32      -0.000031456026
 33       0.238896016263
 34       0.000008844712
 35      -0.000001028573
 36       0.007811675712
 37       0.000004940792
 38      -0.000000575979
 39       0.004374216117
 40      -0.000003403314
 41       0.000000398081
 42      -0.003023077322
 43       0.000002073729
 44      -0.000000244956
 45       0.001860025975
 46      -0.000001217947
 47       0.000000147870
 48      -0.001122439403
 49       0.000000679368
 50      -0.000000088982
 51       0.000674621501
 52      -0.000000324791
 53       0.000000051606
 54      -0.000390024852
 55       0.000000084483
 56      -0.000000027120
 57       0.000203472807
 58      -0.000000086966
 59       0.000000006464
 60      -0.000049195330
 61       0.000000014522
 62      -0.000000347523
 63       0.000000000115
 64      -0.000000008218
 65       0.000000000049
 66      -0.000000009167
 67       0.000000509756
 68      -0.000000000130
 69       0.000000009369
 70      -0.000000000071
 71      -0.000000011958
 72      -0.000000322261
 73       0.000000000072
 74      -0.000000031963
 75       0.000000000056
 76       0.000000018116
 77       0.000000113440
 78      -0.000000000038
 79       0.000000051463
 80      -0.000000000036
 81      -0.000000034657
 82       0.000000110007
 83      -0.000000000002
 84      -0.000000094612
 85       0.000000000026
 86       0.000000070498
 87      -0.000000308866
 88       0.000000000038
 89       0.000000183588
 90      -0.000000000039
 91      -0.000000126560
 92       0.000000449119
 93      -0.000000000031
 94      -0.000000354843
 95       0.000000000097
 96       0.000000135816
 97      -0.000000514044
 98      -0.000000000062
 99       0.000000519809
100      -0.000000000166
101      -0.000000578654
102       0.000000668507
103       0.000000000535
104      -0.000001528463
105       0.000000000593
106       0.000000071377
107       0.000000171750
108      -0.000000000112
109       0.000000110614
110      -0.000000000071
111       0.000000296679
112       0.000000000068
113      -0.000000000220
114       0.000000595739
115      -0.000000000359
116      -0.000000001421
117       0.000000000099
118      -0.000000261852
119      -0.000000000411
120       0.000000000188
121      -0.000000500978
122       0.000000000299
123       0.000000001421
124      -0.000000000083
125      -0.000000378593
126       0.000000001342
127       0.000000000165
128      -0.000000209035
129       0.000000000041
130      -0.000000000937
131      -0.000000000032
132       0.000001688340
133      -0.000000003232
134      -0.000000000864
135       0.000001559394