[Molden Format]
[Title]
 Molden file created by orca_2mkl for BaseName=/data01/Nikolayandreadi/heavy/sCC/Bk

[Atoms] AU
Bk   1  97          0.0415890928         1.5388172189        -3.6027401976 
[GTO]
  1 0
s   9 1.0 
 65541743.5420790017     19019.9476254555
 29791701.6100360006     -7028.1620515347
 13541682.5500160009     10729.5808283425
  6155310.2500069998       219.6760147465
  2797868.2954580002      4877.6731401385
  1271758.3161170001      2107.2533157329
   578071.9618710000      2974.4100271431
   262759.9826690000      2147.5113940620
   119436.3557590000      2194.9432114789
s   1 1.0 
    54289.2526180000      2534.8104531055
s   1 1.0 
    24676.9330080000      1403.2287650284
s   1 1.0 
    11216.7877310000       776.8040267523
s   1 1.0 
     5098.5398780000       430.0257456502
s   1 1.0 
     2317.5181260000       238.0550763439
s   1 1.0 
     1053.4173300000       131.7833175177
s   1 1.0 
      478.8260590000        72.9530453213
s   1 1.0 
      217.6482090000        40.3855884746
s   1 1.0 
       98.9310040000        22.3567877953
s   1 1.0 
       44.9686380000        12.3763445881
s   1 1.0 
       20.4402900000         6.8513378232
s   1 1.0 
        9.2910410000         3.7927863092
s   1 1.0 
        4.2232000000         2.0996230360
s   1 1.0 
        1.9196370000         1.1623165624
s   1 1.0 
        0.8725620000         0.6434389010
s   1 1.0 
        0.3966190000         0.3561969764
s   1 1.0 
        0.1802810000         0.1971844035
s   1 1.0 
        0.0819460000         0.1091580859
s   1 1.0 
        0.0372480000         0.0604278735
s   1 1.0 
        0.0169310000         0.0334519970
p   8 1.0 
   939440.7605340000    163603.5624050141
   391433.6502220000     13648.4726743925
   163097.3542590000     46752.9833864585
    67957.2309410000     22720.7526078154
    28315.5128920000     21690.6091014626
    11798.1303720000     17031.9304440090
     4915.8876550000     15584.1319316186
     2048.2865230000     13766.5970326100
p   1 1.0 
      853.4527180000      6575.2825548909
p   1 1.0 
      355.6052990000      2201.1536933731
p   1 1.0 
      148.1688750000       736.8622658072
p   1 1.0 
       61.7370310000       246.6733675837
p   1 1.0 
       25.7237630000        82.5768310483
p   1 1.0 
       10.7182350000        27.6435733477
p   1 1.0 
        4.4659310000         9.2540128644
p   1 1.0 
        1.8608050000         3.0978912523
p   1 1.0 
        0.7753350000         1.0370550829
p   1 1.0 
        0.3230560000         0.3471661332
p   1 1.0 
        0.1346070000         0.1162183337
p   1 1.0 
        0.0560860000         0.0389052466
d   7 1.0 
    46590.6458960000     73719.3143163267
    18636.2583580000     35601.7129839961
     7454.5033430000     38854.2461510460
     2981.8013370000     35020.0815522118
     1192.7205350000     36710.2669542399
      477.0882140000     32863.1592484308
      190.8352860000     22220.3546355048
d   1 1.0 
       76.3341140000      5619.8892174274
d   1 1.0 
       30.5336460000      1130.6618776183
d   1 1.0 
       12.2134580000       227.4771137761
d   1 1.0 
        4.8853830000        45.7659690972
d   1 1.0 
        1.9541530000         9.2076238684
d   1 1.0 
        0.7816610000         1.8524750201
d   1 1.0 
        0.3126650000         0.3726994945
d   1 1.0 
        0.1250660000         0.0749831686
d   1 1.0 
        0.0500260000         0.0150856038
f   6 1.0 
     5327.8457110000     85722.6979454394
     2049.1714270000     74961.5100018759
      788.1428570000     80222.5980300722
      303.1318680000     79328.9952709062
      116.5891800000     58645.1115196242
       44.8419920000     24668.5776073917
f   1 1.0 
       17.2469200000      3456.2174950412
f   1 1.0 
        6.6334310000       402.6345744753
f   1 1.0 
        2.5513200000        46.9052202571
f   1 1.0 
        0.9812770000         5.4642583341
f   1 1.0 
        0.3774140000         0.6365618290
f   1 1.0 
        0.1451590000         0.0741564629

[5D]
[7F]
[9G]
[MO]
 Sym=     1a
 Ene= -4.84839993277951E+03
 Spin= Alpha
 Occup= 1.000000
  1       0.097409879938
  2       0.071186835470
  3       0.119619571203
  4       0.183736239365
  5       0.265428675794
  6       0.293404913023
  7       0.181424289301
  8       0.029056481881
  9       0.001002226126
 10      -0.000730428722
 11       0.000526691207
 12      -0.000381566453
 13       0.000268317699
 14      -0.000180422225
 15       0.000119327585
 16      -0.000078405268
 17       0.000050547645
 18      -0.000031263875
 19       0.000017665542
 20      -0.000008090389
 21       0.000002179470
 22      -0.000000000110
 23      -0.000000000042
 24       0.000000000034
 25       0.000000000069
 26       0.000000000026
 27      -0.000000000021
 28      -0.000000000079
 29      -0.000000000030
 30       0.000000000025
 31       0.000000000023
 32       0.000000000009
 33      -0.000000000007
 34      -0.000000000020
 35      -0.000000000008
 36       0.000000000006
 37       0.000000000035
 38       0.000000000013
 39      -0.000000000010
 40      -0.000000000016
 41      -0.000000000006
 42       0.000000000004
 43       0.000000000003
 44       0.000000000001
 45      -0.000000000000
 46      -0.000000000003
 47      -0.000000000001
 48       0.000000000001
 49       0.000000000004
 50       0.000000000001
 51      -0.000000000001
 52      -0.000000000001
 53      -0.000000000001
 54       0.000000000000
 55       0.000000000000
 56       0.000000000000
 57      -0.000000000000
 58      -0.000000000000
 59      -0.000000000000
 60       0.000000000000
 61      -0.000000028690
 62      -0.000000009042
 63       0.000000002648
 64      -0.000000020837
 65      -0.000000016334
 66       0.000000024401
 67       0.000000007787
 68      -0.000000002190
 69       0.000000017457
 70       0.000000013665
 71      -0.000000015428
 72      -0.000000004887
 73       0.000000001408
 74      -0.000000011139
 75      -0.000000008727
 76       0.000000009094
 77       0.000000002894
 78      -0.000000000821
 79       0.000000006528
 80       0.000000005112
 81      -0.000000004967
 82      -0.000000001588
 83       0.000000000444
 84      -0.000000003546
 85      -0.000000002775
 86       0.000000002512
 87       0.000000000793
 88      -0.000000000231
 89       0.000000001820
 90       0.000000001427
 91      -0.000000001735
 92      -0.000000000552
 93       0.000000000157
 94      -0.000000001245
 95      -0.000000000975
 96       0.000000000853
 97       0.000000000271
 98      -0.000000000077
 99       0.000000000612
100       0.000000000479
101      -0.000000000405
102      -0.000000000129
103       0.000000000037
104      -0.000000000291
105      -0.000000000228
106       0.000000000137
107       0.000000000044
108      -0.000000000012
109       0.000000000099
110       0.000000000077
111       0.000000000000
112       0.000000000000
113       0.000000000000
114      -0.000000000000
115      -0.000000000000
116      -0.000000000001
117      -0.000000000000
118      -0.000000000000
119       0.000000000000
120       0.000000000000
121      -0.000000000000
122      -0.000000000000
123      -0.000000000000
124      -0.000000000000
125       0.000000000000
126      -0.000000000000
127      -0.000000000000
128       0.000000000000
129       0.000000000000
130       0.000000000000
131       0.000000000001
132      -0.000000000000
133       0.000000000000
134       0.000000000000
135      -0.000000000000
136      -0.000000000000
137      -0.000000000000
138      -0.000000000000
139      -0.000000000000
140       0.000000000000
141      -0.000000000000
142      -0.000000000000
143      -0.000000000000
144      -0.000000000000
145      -0.000000000000
146      -0.000000000000
147       0.000000000000
148      -0.000000000000
149       0.000000000000
150      -0.000000000000
151      -0.000000000000
152       0.000000000000
153      -0.000000000000
154      -0.000000000000
155       0.000000000000
156      -0.000000000000
157      -0.000000000000
158       0.000000000000
159      -0.000000000000
 Sym=     1a
 Ene= -9.33755523963753E+02
 Spin= Alpha
 Occup= 1.000000
  1      -0.042299335975
  2      -0.033466863772
  3      -0.054683411483
  4      -0.092280360082
  5      -0.141741558440
  6      -0.170642744409
  7      -0.045350503251
  8       0.398105296739
  9       0.589957744504
 10       0.146154664584
 11      -0.001279085568
 12       0.000678989628
 13      -0.000201538416
 14       0.000002594156
 15       0.000048504418
 16      -0.000041357672
 17       0.000028889920
 18      -0.000018895743
 19       0.000010870153
 20      -0.000005021901
 21       0.000001358080
 22       0.000000001626
 23       0.000000000620
 24      -0.000000000512
 25       0.000000002572
 26       0.000000000980
 27      -0.000000000809
 28       0.000000002297
 29       0.000000000876
 30      -0.000000000723
 31       0.000000004386
 32       0.000000001672
 33      -0.000000001378
 34       0.000000000475
 35       0.000000000181
 36      -0.000000000155
 37      -0.000000000269
 38      -0.000000000103
 39       0.000000000103
 40       0.000000000126
 41       0.000000000049
 42      -0.000000000059
 43       0.000000000048
 44       0.000000000018
 45      -0.000000000002
 46      -0.000000000039
 47      -0.000000000014
 48       0.000000000004
 49      -0.000000000031
 50      -0.000000000012
 51       0.000000000014
 52       0.000000000002
 53       0.000000000001
 54      -0.000000000003
 55       0.000000000004
 56       0.000000000001
 57      -0.000000000000
 58       0.000000000002
 59       0.000000000001
 60      -0.000000000001
 61      -0.000002205620
 62      -0.000000697594
 63       0.000000201960
 64      -0.000001595089
 65      -0.000001249858
 66      -0.000000823315
 67      -0.000000260805
 68       0.000000075129
 69      -0.000000594303
 70      -0.000000465594
 71       0.000000199236
 72       0.000000063370
 73      -0.000000018017
 74       0.000000143114
 75       0.000000112067
 76      -0.000000107578
 77      -0.000000034578
 78       0.000000009500
 79      -0.000000076289
 80      -0.000000059666
 81       0.000000056653
 82       0.000000018356
 83      -0.000000004910
 84       0.000000039776
 85       0.000000031079
 86      -0.000000026478
 87      -0.000000008383
 88       0.000000002419
 89      -0.000000019126
 90      -0.000000014985
 91       0.000000022298
 92       0.000000007146
 93      -0.000000001982
 94       0.000000015869
 95       0.000000012415
 96      -0.000000010379
 97      -0.000000003329
 98       0.000000000921
 99      -0.000000007381
100      -0.000000005774
101       0.000000004896
102       0.000000001567
103      -0.000000000437
104       0.000000003492
105       0.000000002732
106      -0.000000001659
107      -0.000000000531
108       0.000000000148
109      -0.000000001182
110      -0.000000000925
111       0.000000000002
112       0.000000000006
113       0.000000000011
114      -0.000000000044
115      -0.000000000060
116      -0.000000000095
117      -0.000000000170
118       0.000000000000
119      -0.000000000006
120      -0.000000000008
121       0.000000000031
122       0.000000000043
123       0.000000000069
124       0.000000000123
125      -0.000000000000
126       0.000000000004
127       0.000000000005
128      -0.000000000019
129      -0.000000000026
130      -0.000000000042
131      -0.000000000077
132      -0.000000000000
133      -0.000000000002
134      -0.000000000003
135       0.000000000010
136       0.000000000013
137       0.000000000022
138       0.000000000040
139       0.000000000000
140       0.000000000001
141       0.000000000001
142      -0.000000000004
143      -0.000000000006
144      -0.000000000009
145      -0.000000000016
146       0.000000000000
147      -0.000000000001
148      -0.000000000001
149       0.000000000002
150       0.000000000003
151       0.000000000005
152       0.000000000009
153      -0.000000000001
154       0.000000000001
155      -0.000000000000
156      -0.000000000001
157      -0.000000000001
158      -0.000000000001
159      -0.000000000003
 Sym=     1a
 Ene= -7.69465593372300E+02
 Spin= Alpha
 Occup= 1.000000
  1      -0.000000000000
  2      -0.000000000000
  3      -0.000000000000
  4       0.000000000000
  5      -0.000000000000
  6      -0.000000000000
  7      -0.000000000000
  8       0.000000000000
  9       0.000000000002
 10      -0.000000000003
 11       0.000000000006
 12      -0.000000000007
 13       0.000000000009
 14      -0.000000000014
 15       0.000000000015
 16      -0.000000000012
 17       0.000000000010
 18      -0.000000000006
 19       0.000000000003
 20       0.000000000001
 21      -0.000000000002
 22       0.062856169827
 23      -0.176107887611
 24      -0.013512965178
 25       0.103266891324
 26      -0.289329021184
 27      -0.022200555815
 28       0.152155313628
 29      -0.426302635775
 30      -0.032710702234
 31       0.078058932856
 32      -0.218702377385
 33      -0.016781290436
 34       0.002289316998
 35      -0.006414116254
 36      -0.000492162679
 37       0.001460239054
 38      -0.004091239026
 39      -0.000313925570
 40      -0.001000815277
 41       0.002804043972
 42       0.000215157580
 43       0.000614747735
 44      -0.001722375466
 45      -0.000132159886
 46      -0.000368983960
 47       0.001033804411
 48       0.000079325022
 49       0.000218351667
 50      -0.000611768912
 51      -0.000046941744
 52      -0.000122089987
 53       0.000342066809
 54       0.000026247186
 55       0.000059028084
 56      -0.000165382508
 57      -0.000012689993
 58      -0.000018478337
 59       0.000051771861
 60       0.000003972516
 61       0.000000000033
 62      -0.000000000138
 63       0.000000000211
 64       0.000000000541
 65      -0.000000000635
 66       0.000000000073
 67      -0.000000000335
 68       0.000000000504
 69       0.000000001304
 70      -0.000000001526
 71       0.000000000005
 72      -0.000000000016
 73       0.000000000028
 74       0.000000000070
 75      -0.000000000081
 76       0.000000000011
 77      -0.000000000059
 78       0.000000000086
 79       0.000000000223
 80      -0.000000000260
 81      -0.000000000013
 82       0.000000000072
 83      -0.000000000104
 84      -0.000000000270
 85       0.000000000315
 86      -0.000000000003
 87       0.000000000006
 88      -0.000000000012
 89      -0.000000000029
 90       0.000000000035
 91      -0.000000000002
 92       0.000000000014
 93      -0.000000000020
 94      -0.000000000053
 95       0.000000000061
 96       0.000000000002
 97      -0.000000000004
 98       0.000000000006
 99       0.000000000010
100      -0.000000000019
101      -0.000000000001
102       0.000000000001
103      -0.000000000002
104      -0.000000000000
105       0.000000000007
106       0.000000000001
107      -0.000000000001
108       0.000000000001
109       0.000000000002
110      -0.000000000004
111       0.000000371959
112      -0.000000634473
113       0.000001970829
114      -0.000000083601
115       0.000000661960
116       0.000001073447
117      -0.000000705551
118      -0.000000214770
119       0.000000366913
120      -0.000001137713
121       0.000000043941
122      -0.000000378832
123      -0.000000631748
124       0.000000414023
125       0.000000119963
126      -0.000000205097
127       0.000000635420
128      -0.000000023384
129       0.000000210696
130       0.000000356071
131      -0.000000233038
132      -0.000000062456
133       0.000000106732
134      -0.000000330840
135       0.000000012543
136      -0.000000109982
137      -0.000000184364
138       0.000000120761
139       0.000000030403
140      -0.000000051954
141       0.000000161050
142      -0.000000006119
143       0.000000053548
144       0.000000089710
145      -0.000000058765
146      -0.000000013997
147       0.000000023919
148      -0.000000074141
149       0.000000002803
150      -0.000000024642
151      -0.000000041335
152       0.000000027073
153       0.000000004864
154      -0.000000008314
155       0.000000025767
156      -0.000000000962
157       0.000000008555
158       0.000000014398
159      -0.000000009427
 Sym=     1a
 Ene= -7.69463476604676E+02
 Spin= Alpha
 Occup= 1.000000
  1      -0.000000000474
  2      -0.000000000370
  3      -0.000000000626
  4      -0.000000000989
  5      -0.000000001674
  6      -0.000000001637
  7      -0.000000001719
  8       0.000000006143
  9       0.000000009483
 10      -0.000000005704
 11       0.000000001561
 12       0.000000001482
 13      -0.000000000022
 14      -0.000000000623
 15       0.000000000094
 16       0.000000000092
 17       0.000000000021
 18       0.000000000036
 19      -0.000000000035
 20       0.000000000006
 21       0.000000000001
 22      -0.168046809614
 23      -0.064043855060
 24       0.052974992212
 25      -0.276085491758
 26      -0.105218178547
 27       0.087033052334
 28      -0.406789303995
 29      -0.155030347108
 30       0.128236056730
 31      -0.208688749496
 32      -0.079532792416
 33       0.065786937012
 34      -0.006119044835
 35      -0.002332012261
 36       0.001928964637
 37      -0.003904255504
 38      -0.001487940022
 39       0.001230775537
 40       0.002675830530
 41       0.001019778379
 42      -0.000843527461
 43      -0.001643596973
 44      -0.000626386710
 45       0.000518126672
 46       0.000986525469
 47       0.000375972010
 48      -0.000310991783
 49      -0.000583806787
 50      -0.000222493006
 51       0.000184038951
 52       0.000326429116
 53       0.000124404507
 54      -0.000102903344
 55      -0.000157822764
 56      -0.000060147397
 57       0.000049751966
 58       0.000049405335
 59       0.000018828728
 60      -0.000015574514
 61       0.000000000630
 62       0.000000000871
 63       0.000000000368
 64      -0.000000001375
 65      -0.000000001213
 66       0.000000001114
 67       0.000000001284
 68       0.000000000490
 69      -0.000000001742
 70      -0.000000001554
 71       0.000000000104
 72       0.000000000049
 73      -0.000000000001
 74       0.000000000023
 75       0.000000000017
 76       0.000000000184
 77       0.000000000240
 78       0.000000000098
 79      -0.000000000353
 80      -0.000000000317
 81      -0.000000000239
 82      -0.000000000276
 83      -0.000000000104
 84       0.000000000368
 85       0.000000000332
 86      -0.000000000033
 87      -0.000000000034
 88      -0.000000000013
 89       0.000000000045
 90       0.000000000038
 91      -0.000000000048
 92      -0.000000000059
 93      -0.000000000023
 94       0.000000000081
 95       0.000000000074
 96       0.000000000008
 97       0.000000000014
 98       0.000000000006
 99      -0.000000000005
100      -0.000000000016
101      -0.000000000002
102      -0.000000000006
103      -0.000000000002
104      -0.000000000006
105       0.000000000006
106       0.000000000002
107       0.000000000003
108       0.000000000001
109       0.000000000000
110      -0.000000000003
111      -0.000000520347
112       0.000000564501
113       0.000000321226
114      -0.000000002141
115      -0.000000262442
116      -0.000000731218
117      -0.000001242950
118       0.000000312487
119      -0.000000337896
120      -0.000000191280
121      -0.000000004808
122       0.000000149198
123       0.000000425600
124       0.000000722262
125      -0.000000177679
126       0.000000191852
127       0.000000108356
128       0.000000004254
129      -0.000000082736
130      -0.000000238620
131      -0.000000404645
132       0.000000091527
133      -0.000000098914
134      -0.000000055944
135      -0.000000001719
136       0.000000043269
137       0.000000123967
138       0.000000210314
139      -0.000000044467
140       0.000000048067
141       0.000000027195
142       0.000000000774
143      -0.000000021105
144      -0.000000060362
145      -0.000000102418
146       0.000000020545
147      -0.000000022197
148      -0.000000012550
149      -0.000000000403
150       0.000000009688
151       0.000000027783
152       0.000000047131
153      -0.000000007145
154       0.000000007721
155       0.000000004365
156       0.000000000136
157      -0.000000003375
158      -0.000000009672
159      -0.000000016408
 Sym=     1a
 Ene= -7.69462294840329E+02
 Spin= Alpha
 Occup= 1.000000
  1       0.000000000000
  2       0.000000000000
  3       0.000000000000
  4       0.000000000001
  5       0.000000000000
  6       0.000000000003
  7      -0.000000000002
  8       0.000000000002
  9      -0.000000000019
 10       0.000000000031
 11      -0.000000000050
 12       0.000000000066
 13      -0.000000000097
 14       0.000000000169
 15      -0.000000000192
 16       0.000000000138
 17      -0.000000000082
 18       0.000000000056
 19      -0.000000000054
 20       0.000000000029
 21      -0.000000000009
 22       0.054378794522
 23       0.005648683592
 24       0.179328887208
 25       0.089339386146
 26       0.009280270536
 27       0.294620961028
 28       0.131634240737
 29       0.013673715688
 30       0.434099764757
 31       0.067529726736
 32       0.007014757548
 33       0.222697668388
 34       0.001979821566
 35       0.000205657110
 36       0.006529000898
 37       0.001263443076
 38       0.000131242150
 39       0.004166547691
 40      -0.000865905823
 41      -0.000089947330
 42      -0.002855560301
 43       0.000531867261
 44       0.000055248518
 45       0.001753977107
 46      -0.000319239994
 47      -0.000033161512
 48      -0.001052780758
 49       0.000188923207
 50       0.000019624659
 51       0.000623025672
 52      -0.000105633836
 53      -0.000010972858
 54      -0.000348356310
 55       0.000051072143
 56       0.000005305187
 57       0.000168424283
 58      -0.000015987821
 59      -0.000001660755
 60      -0.000052724183
 61      -0.000000000673
 62       0.000000001113
 63       0.000000000457
 64       0.000000000358
 65       0.000000000181
 66      -0.000000001135
 67       0.000000001884
 68       0.000000000774
 69       0.000000000606
 70       0.000000000303
 71      -0.000000000051
 72       0.000000000087
 73       0.000000000036
 74       0.000000000028
 75       0.000000000018
 76      -0.000000000206
 77       0.000000000338
 78       0.000000000139
 79       0.000000000109
 80       0.000000000053
 81       0.000000000240
 82      -0.000000000395
 83      -0.000000000162
 84      -0.000000000123
 85      -0.000000000062
 86       0.000000000031
 87      -0.000000000052
 88      -0.000000000022
 89      -0.000000000023
 90      -0.000000000010
 91       0.000000000049
 92      -0.000000000081
 93      -0.000000000033
 94      -0.000000000022
 95      -0.000000000012
 96      -0.000000000012
 97       0.000000000021
 98       0.000000000009
 99       0.000000000002
100       0.000000000003
101       0.000000000005
102      -0.000000000009
103      -0.000000000004
104      -0.000000000000
105      -0.000000000001
106      -0.000000000003
107       0.000000000005
108       0.000000000002
109       0.000000000002
110       0.000000000001
111      -0.000001066066
112      -0.000000679489
113       0.000000033828
114      -0.000000516569
115      -0.000000308194
116       0.000000140689
117       0.000000129639
118       0.000000641700
119       0.000000401850
120      -0.000000024514
121       0.000000320679
122       0.000000194076
123      -0.000000088415
124      -0.000000081988
125      -0.000000365216
126      -0.000000226887
127       0.000000015009
128      -0.000000184991
129      -0.000000112638
130       0.000000051270
131       0.000000047670
132       0.000000188034
133       0.000000117385
134      -0.000000007396
135       0.000000094467
136       0.000000057310
137      -0.000000026100
138      -0.000000024228
139      -0.000000091385
140      -0.000000057063
141       0.000000003587
142      -0.000000045893
143      -0.000000027837
144       0.000000012678
145       0.000000011767
146       0.000000042203
147       0.000000026333
148      -0.000000001669
149       0.000000021222
150       0.000000012878
151      -0.000000005866
152      -0.000000005445
153      -0.000000014693
154      -0.000000009150
155       0.000000000592
156      -0.000000007412
157      -0.000000004504
158       0.000000002051
159       0.000000001905
 Sym=     1a
 Ene= -2.43208783207386E+02
 Spin= Alpha
 Occup= 1.000000
  1      -0.020842846774
  2      -0.016745947558
  3      -0.027111129456
  4      -0.046965024586
  5      -0.071960705154
  6      -0.090444069354
  7      -0.008099275167
  8       0.327046817559
  9       0.675349463401
 10      -0.292377666782
 11      -0.956877508422
 12      -0.102528658818
 13      -0.023530195769
 14       0.017787499854
 15      -0.012348533973
 16       0.008377541340
 17      -0.005487919848
 18       0.003420369871
 19      -0.001940816356
 20       0.000890729841
 21      -0.000240208409
 22      -0.000000001259
 23      -0.000000000481
 24       0.000000000415
 25      -0.000000003392
 26      -0.000000001295
 27       0.000000001101
 28       0.000000000511
 29       0.000000000191
 30      -0.000000000110
 31      -0.000000014972
 32      -0.000000005703
 33       0.000000004688
 34       0.000000014769
 35       0.000000005632
 36      -0.000000004732
 37       0.000000045713
 38       0.000000017435
 39      -0.000000014596
 40      -0.000000009258
 41      -0.000000003542
 42       0.000000003106
 43       0.000000004178
 44       0.000000001602
 45      -0.000000001444
 46      -0.000000003898
 47      -0.000000001492
 48       0.000000001303
 49       0.000000001553
 50       0.000000000596
 51      -0.000000000532
 52      -0.000000001090
 53      -0.000000000418
 54       0.000000000367
 55       0.000000000593
 56       0.000000000229
 57      -0.000000000197
 58      -0.000000000147
 59      -0.000000000058
 60       0.000000000049
 61       0.000022141350
 62       0.000006988730
 63      -0.000002036374
 64       0.000016051117
 65       0.000012579971
 66       0.000047869025
 67       0.000015075436
 68      -0.000004424147
 69       0.000034794935
 70       0.000027277186
 71       0.000025089215
 72       0.000007813479
 73      -0.000002374550
 74       0.000018476856
 75       0.000014502437
 76      -0.000002415179
 77      -0.000000743378
 78       0.000000234150
 79      -0.000001802616
 80      -0.000001416610
 81       0.000001492888
 82       0.000000461703
 83      -0.000000143338
 84       0.000001108235
 85       0.000000870491
 86      -0.000000772751
 87      -0.000000235826
 88       0.000000076201
 89      -0.000000582281
 90      -0.000000457990
 91       0.000000507440
 92       0.000000156867
 93      -0.000000048765
 94       0.000000376879
 95       0.000000296043
 96      -0.000000250152
 97      -0.000000077261
 98       0.000000024083
 99      -0.000000185968
100      -0.000000146099
101       0.000000119380
102       0.000000036833
103      -0.000000011517
104       0.000000088851
105       0.000000069812
106      -0.000000040419
107      -0.000000012483
108       0.000000003892
109      -0.000000030050
110      -0.000000023608
111       0.000000000039
112       0.000000000143
113       0.000000000249
114      -0.000000001023
115      -0.000000001390
116      -0.000000002211
117      -0.000000003957
118      -0.000000000017
119       0.000000000065
120       0.000000000078
121      -0.000000000256
122      -0.000000000361
123      -0.000000000590
124      -0.000000001054
125       0.000000000003
126      -0.000000000032
127      -0.000000000043
128       0.000000000150
129       0.000000000207
130       0.000000000337
131       0.000000000600
132      -0.000000000005
133       0.000000000016
134       0.000000000016
135      -0.000000000049
136      -0.000000000069
137      -0.000000000115
138      -0.000000000203
139       0.000000000005
140      -0.000000000013
141      -0.000000000011
142       0.000000000035
143       0.000000000051
144       0.000000000084
145       0.000000000149
146      -0.000000000005
147       0.000000000009
148       0.000000000003
149      -0.000000000013
150      -0.000000000013
151      -0.000000000022
152      -0.000000000044
153       0.000000000013
154      -0.000000000009
155       0.000000000000
156       0.000000000011
157       0.000000000003
158       0.000000000007
159       0.000000000018
 Sym=     1a
 Ene= -1.97389095148489E+02
 Spin= Alpha
 Occup= 1.000000
  1      -0.000000000000
  2      -0.000000000000
  3      -0.000000000000
  4       0.000000000000
  5      -0.000000000000
  6       0.000000000000
  7      -0.000000000000
  8       0.000000000001
  9       0.000000000000
 10       0.000000000001
 11      -0.000000000004
 12       0.000000000006
 13      -0.000000000017
 14       0.000000000037
 15      -0.000000000044
 16       0.000000000030
 17      -0.000000000019
 18      -0.000000000006
 19       0.000000000017
 20      -0.000000000011
 21       0.000000000003
 22       0.035511254101
 23      -0.099493986635
 24      -0.007634265358
 25       0.062613152314
 26      -0.175426982154
 27      -0.013460674137
 28       0.092692359082
 29      -0.259701679626
 30      -0.019927149399
 31      -0.048039415853
 32       0.134594880401
 33       0.010327589302
 34      -0.249179825222
 35       0.698141894126
 36       0.053569071463
 37      -0.079345677489
 38       0.222307490241
 39       0.017057858688
 40       0.002358894446
 41      -0.006609054420
 42      -0.000507118745
 43      -0.001615395936
 44       0.004525950565
 45       0.000347280296
 46       0.000905275972
 47      -0.002536365360
 48      -0.000194617615
 49      -0.000500186093
 50       0.001401401028
 51       0.000107530774
 52       0.000274767518
 53      -0.000769832430
 54      -0.000059069944
 55      -0.000132016328
 56       0.000369877955
 57       0.000028381087
 58       0.000041287630
 59      -0.000115677984
 60      -0.000008876105
 61       0.000000000077
 62      -0.000000000459
 63       0.000000000668
 64       0.000000001768
 65      -0.000000002089