[Molden Format]
[Title]
 Molden file created by orca_2mkl for BaseName=/data01/nikolayandreadi/sCC/CH3COOH

[Atoms] AU
C    1   6          2.1582599970         1.4316791958         1.5662711602 
C    2   6         -0.0287351756         0.4444220127         0.0681038401 
O    3   8         -1.1524683800         2.3163507059        -1.2722033176 
O    4   8         -0.7572945201        -1.7175267297         0.0067992346 
H    5   1          3.5444156902         2.2714111287         0.2953774228 
H    6   1          3.0104357765        -0.1023759133         2.6288282605 
H    7   1          1.5117809071         2.9106790237         2.8452019028 
H    8   1         -2.5345403751         1.5119849976        -2.1782476303 
[GTO]
  1 0
s   6 1.0 
    13575.3496820000         0.7684632837
     2035.2333680000         1.0861436461
      463.2256235900         1.7703924000
      131.2001959800         2.7178496271
       42.8530158900         3.6101953426
       15.5841857700         3.6946140086
s   1 1.0 
        6.2067138500         2.8025694579
s   1 1.0 
        2.5764896500         1.4493770955
s   1 1.0 
        0.5769633900         0.4718145012
s   1 1.0 
        0.2297283100        -0.2364944648
s   1 1.0 
        0.0951644400         0.1221141848
p   4 1.0 
       34.6972322400         1.3669717438
        7.9582622800         1.4530900682
        2.3780826900         1.2707683638
        0.8143320800         0.8025478511
p   1 1.0 
        0.2888754700         0.3018758836
p   1 1.0 
        0.1005682400         0.0807265050
d   1 1.0 
        1.0970000000         3.3522135855
d   1 1.0 
        0.3180000000         0.3838994974
f   1 1.0 
        0.7610000000         3.0840084332

  2 0
s   6 1.0 
    13575.3496820000         0.7684632837
     2035.2333680000         1.0861436461
      463.2256235900         1.7703924000
      131.2001959800         2.7178496271
       42.8530158900         3.6101953426
       15.5841857700         3.6946140086
s   1 1.0 
        6.2067138500         2.8025694579
s   1 1.0 
        2.5764896500         1.4493770955
s   1 1.0 
        0.5769633900         0.4718145012
s   1 1.0 
        0.2297283100        -0.2364944648
s   1 1.0 
        0.0951644400         0.1221141848
p   4 1.0 
       34.6972322400         1.3669717438
        7.9582622800         1.4530900682
        2.3780826900         1.2707683638
        0.8143320800         0.8025478511
p   1 1.0 
        0.2888754700         0.3018758836
p   1 1.0 
        0.1005682400         0.0807265050
d   1 1.0 
        1.0970000000         3.3522135855
d   1 1.0 
        0.3180000000         0.3838994974
f   1 1.0 
        0.7610000000         3.0840084332

  3 0
s   6 1.0 
    27032.3826310000         1.4645050749
     4052.3871392000         1.8244031008
      922.3272271000         2.8547160967
      261.2407098900         4.3654874290
       85.3546413500         5.8940772662
       31.0350352400         6.2963020147
s   1 1.0 
       12.2608607300         4.6698272139
s   1 1.0 
        4.9987076000         2.3826123703
s   1 1.0 
        1.1703108200         0.8019291632
s   1 1.0 
        0.4647474100        -0.4011648063
s   1 1.0 
        0.1850453600         0.2010799377
p   4 1.0 
       63.2749548000         3.0898340730
       14.6270493800         3.3923831935
        4.4501223500         2.9482801524
        1.5275799600         1.7113350234
p   1 1.0 
        0.5293511800         0.6436057935
p   1 1.0 
        0.1747842100         0.1610897223
d   1 1.0 
        2.3140000000        12.3767310624
d   1 1.0 
        0.6450000000         1.3234257612
f   1 1.0 
        1.4280000000        12.7097950062

  4 0
s   6 1.0 
    27032.3826310000         1.4645050749
     4052.3871392000         1.8244031008
      922.3272271000         2.8547160967
      261.2407098900         4.3654874290
       85.3546413500         5.8940772662
       31.0350352400         6.2963020147
s   1 1.0 
       12.2608607300         4.6698272139
s   1 1.0 
        4.9987076000         2.3826123703
s   1 1.0 
        1.1703108200         0.8019291632
s   1 1.0 
        0.4647474100        -0.4011648063
s   1 1.0 
        0.1850453600         0.2010799377
p   4 1.0 
       63.2749548000         3.0898340730
       14.6270493800         3.3923831935
        4.4501223500         2.9482801524
        1.5275799600         1.7113350234
p   1 1.0 
        0.5293511800         0.6436057935
p   1 1.0 
        0.1747842100         0.1610897223
d   1 1.0 
        2.3140000000        12.3767310624
d   1 1.0 
        0.6450000000         1.3234257612
f   1 1.0 
        1.4280000000        12.7097950062

  5 0
s   3 1.0 
       34.0613410000         0.2556300129
        5.1235746000         0.4613599287
        1.1646626000         0.6811215012
s   1 1.0 
        0.3272304100         0.3083545312
s   1 1.0 
        0.1030724100         0.1296483265
p   1 1.0 
        0.8000000000         1.0784563492

  6 0
s   3 1.0 
       34.0613410000         0.2556300129
        5.1235746000         0.4613599287
        1.1646626000         0.6811215012
s   1 1.0 
        0.3272304100         0.3083545312
s   1 1.0 
        0.1030724100         0.1296483265
p   1 1.0 
        0.8000000000         1.0784563492

  7 0
s   3 1.0 
       34.0613410000         0.2556300129
        5.1235746000         0.4613599287
        1.1646626000         0.6811215012
s   1 1.0 
        0.3272304100         0.3083545312
s   1 1.0 
        0.1030724100         0.1296483265
p   1 1.0 
        0.8000000000         1.0784563492

  8 0
s   3 1.0 
       34.0613410000         0.2556300129
        5.1235746000         0.4613599287
        1.1646626000         0.6811215012
s   1 1.0 
        0.3272304100         0.3083545312
s   1 1.0 
        0.1030724100         0.1296483265
p   1 1.0 
        0.8000000000         1.0784563492

[5D]
[9G]
[MO]
 Sym=     1a
 Ene= -2.06284471884015E+01
 Spin= Alpha
 Occup= 2.000000
  1       0.000003657659
  2      -0.000032592099
  3       0.000073379397
  4      -0.000032796413
  5       0.001655908373
  6       0.001553768582
  7       0.000027588976
  8       0.000050896246
  9       0.000008807097
 10       0.000865001047
 11      -0.000151627218
 12       0.000730860890
 13      -0.000159250197
 14      -0.000434162803
 15      -0.000026887454
 16       0.000030448837
 17      -0.000024663642
 18      -0.000014553632
 19       0.000023731566
 20      -0.000046543665
 21      -0.000171427429
 22      -0.000032602435
 23      -0.000293242129
 24      -0.000428892788
 25      -0.000134337688
 26      -0.000012512251
 27      -0.000012945945
 28       0.000016294765
 29      -0.000004357440
 30       0.000055725418
 31       0.000002764088
 32      -0.000049176926
 33       0.000018064388
 34      -0.000082757065
 35       0.000295431644
 36      -0.000252515989
 37       0.001270965329
 38       0.000166042855
 39       0.000041577830
 40      -0.000098783130
 41       0.000056752535
 42       0.002061145432
 43      -0.002118369421
 44       0.002143062107
 45      -0.000824763469
 46       0.001272335801
 47      -0.000959161458
 48       0.000049366257
 49      -0.000149764299
 50       0.000167406969
 51       0.000089059792
 52       0.000110302210
 53      -0.000153720116
 54      -0.000402662262
 55       0.001589168304
 56       0.000450501886
 57       0.001734381005
 58      -0.000162840938
 59       0.000126388212
 60       0.000003914211
 61       0.000036278731
 62      -0.000203217747
 63       0.000004613643
 64      -0.000015170110
 65      -0.436204453445
 66      -0.411824732688
 67      -0.250971367495
 68      -0.024765916035
 69      -0.013716903970
 70      -0.004310784197
 71       0.000322015824
 72       0.001831577665
 73      -0.000181691727
 74       0.000230652323
 75      -0.002975053089
 76       0.000894222722
 77       0.000093809447
 78       0.000277457192
 79       0.000008109005
 80       0.000036618712
 81      -0.000039489322
 82       0.000049615333
 83       0.000060657715
 84       0.000012159593
 85      -0.000175907458
 86       0.000521460629
 87      -0.000412517895
 88      -0.000223513231
 89      -0.000206145593
 90      -0.000008817656
 91      -0.000003713431
 92      -0.000000489375
 93      -0.000061331132
 94      -0.000075066639
 95       0.000034111845
 96       0.000008323795
 97       0.000115424230
 98       0.000108864290
 99       0.000064362342
100       0.000082773417
101       0.001010326666
102       0.000793160666
103      -0.000017543312
104      -0.000043181629
105      -0.000003571978
106       0.000067744704
107      -0.000154645627
108       0.000090638921
109       0.000368052339
110      -0.000013733070
111       0.000296053236
112       0.000022171728
113      -0.000048817951
114       0.000011374136
115       0.000014305322
116      -0.000014042563
117      -0.000076619441
118       0.000196373034
119       0.000001473085
120      -0.000013418825
121       0.000092785785
122       0.000006095055
123      -0.000008526775
124      -0.000018580648
125       0.000023917931
126       0.000040360625
127       0.000007133386
128       0.000009840534
129       0.000023117630
130       0.000216576997
131      -0.000276759428
132      -0.000032334453
133      -0.000076911461
134       0.000023712609
135      -0.000055216678
136      -0.000425265319
137      -0.000051962736
138       0.000027478881
139      -0.000033210233
140       0.000031353361
141       0.000021752796
142       0.000210074210
143      -0.000268580164
144      -0.000004883620
145      -0.000085608309
146      -0.000011223538
147      -0.000509101194
148      -0.000802434825
149       0.000531104683
150      -0.000369014491
151      -0.000164308723
152      -0.000253961713
 Sym=     1a
 Ene= -2.05647168651190E+01
 Spin= Alpha
 Occup= 2.000000
  1       0.000007164326
  2      -0.000058781425
  3       0.000133327462
  4      -0.000233407474
  5       0.000790373427
  6       0.000938825860
  7       0.000064146383
  8       0.000054813195
  9       0.000036467091
 10       0.000483495615
 11       0.000187505116
 12       0.000353595895
 13      -0.000254986359
 14       0.000219835070
 15      -0.000252370184
 16       0.000025153154
 17      -0.000048936659
 18      -0.000011524181
 19       0.000005363404
 20      -0.000039837396
 21      -0.000048111485
 22       0.000298883214
 23      -0.000462500815
 24      -0.000178466103
 25      -0.000401333888
 26       0.000015441402
 27      -0.000042918116
 28       0.000023435775
 29      -0.000044743779
 30       0.000070984393
 31       0.000014390185
 32      -0.000055597563
 33       0.000015675821
 34      -0.000042711508
 35       0.000269520804
 36      -0.000747131004
 37       0.002935425300
 38       0.000808395140
 39       0.000156989728
 40       0.000514782884
 41       0.000001900674
 42       0.001828643552
 43       0.004891504073
 44       0.000279921025
 45      -0.000832000018
 46      -0.002023520469
 47      -0.000178157584
 48       0.000123673248
 49      -0.000025353418
 50      -0.000016953162
 51       0.000156192231
 52      -0.000137875790
 53       0.001290708979
 54       0.000591019817
 55      -0.000312681020
 56       0.001986920075
 57      -0.001501497324
 58       0.000013955169
 59      -0.000006368864
 60      -0.000002472592
 61       0.000095643624
 62       0.000150246133
 63      -0.000043883419
 64      -0.000024951831
 65      -0.000117463933
 66      -0.000116495254
 67      -0.000061226133
 68       0.000103926955
 69       0.000870168485
 70       0.000179840096
 71      -0.000015193928
 72       0.000001724862
 73      -0.000012441410
 74      -0.000021433533
 75       0.000354522494
 76      -0.000102003950
 77       0.000262122384
 78       0.000432204036
 79       0.000105032218
 80       0.000011515268
 81      -0.000047715038
 82       0.000005890164
 83      -0.000003631345
 84      -0.000009315849
 85      -0.000014405780
 86       0.000155631108
 87       0.000058678435
 88       0.000087899345
 89       0.000087775852
 90      -0.000026108575
 91       0.000022813386
 92       0.000023639181
 93       0.000010117677
 94      -0.000012714983
 95      -0.000022312107
 96      -0.000029728348
 97      -0.436204801578
 98      -0.411910548416
 99      -0.250838400884
100      -0.025087693796
101      -0.015543332173
102      -0.004241994939
103      -0.000623392509
104      -0.002032726236
105      -0.000008602089
106       0.001282286962
107       0.003976709696
108       0.000066629777
109      -0.000023103026
110      -0.000084892543
111       0.000002195525
112       0.000131066245
113      -0.000073539313
114       0.000016306117
115       0.000162032584
116      -0.000115505248
117      -0.000464340678
118      -0.000114386394
119       0.000066974403
120      -0.000690312593
121       0.000502565682
122      -0.000002968799
123      -0.000012080643
124      -0.000044092727
125       0.000008204417
126       0.000011019096
127       0.000043319855
128       0.000033640983
129       0.000022834024
130       0.000323281778
131      -0.000120021771
132      -0.000040983663
133      -0.000092476841
134       0.000016677166
135      -0.000057140865
136      -0.000472809530
137       0.000084736266
138       0.000045573748
139      -0.000047463579
140       0.000049685875
141       0.000020869205
142       0.000308604901
143      -0.000117499887
144      -0.000016335060
145      -0.000099438088
146      -0.000011110940
147      -0.000083042736
148       0.000269431558
149      -0.000142108115
150       0.000031212625
151      -0.000018761988
152       0.000029270380
 Sym=     1a
 Ene= -1.13933626367938E+01
 Spin= Alpha
 Occup= 2.000000
  1      -0.001095506665
  2      -0.000821080230
  3      -0.000738689614
  4       0.000049329227
  5       0.000638807166
  6       0.004427918937
  7       0.000117980950
  8       0.000071265498
  9       0.000076409203
 10      -0.000037593959
 11      -0.000262573523
 12       0.000033417227
 13      -0.001256139240
 14      -0.000730072325
 15      -0.000818757915
 16      -0.000003438028
 17       0.000063370119
 18       0.000045698942
 19       0.000051616586
 20       0.000055769131
 21      -0.000123098814
 22       0.000365375504
 23       0.000044314248
 24       0.000023831703
 25       0.000200186430
 26       0.000084966248
 27      -0.000021811151
 28      -0.000056650081
 29      -0.000051251321
 30      -0.000129678861
 31       0.000033690008
 32       0.000149449045
 33      -0.467651169372
 34      -0.403804965010
 35      -0.227706962718
 36      -0.020112999531
 37      -0.007346900168
 38      -0.005256176598
 39       0.000569204730
 40      -0.000579260743
 41       0.000590370625
 42       0.000120546893
 43       0.001101989944
 44      -0.000166537891
 45      -0.002322412335
 46      -0.000987738991
 47      -0.001606723969
 48       0.000382389986
 49      -0.000494340667
 50       0.000210480430
 51       0.000423247429
 52      -0.000195508941
 53       0.000414444872
 54      -0.000170773006
 55       0.000288143805
 56       0.000670667855
 57      -0.000117952704
 58      -0.000095415217
 59      -0.000119821886
 60      -0.000419565600
 61      -0.000339289040
 62      -0.000457676942
 63       0.000634534363
 64       0.000392162879
 65       0.000078448034
 66       0.000071296237
 67       0.000141603553
 68      -0.000780214414
 69      -0.001337072921
 70      -0.001493369810
 71      -0.000193436787
 72       0.000307868946
 73      -0.000227301395
 74       0.000495974880
 75      -0.000643943738
 76       0.000548050474
 77       0.000098174403
 78       0.000975180100
 79      -0.000155665152
 80      -0.000005599057
 81       0.000006169902
 82       0.000052990558
 83       0.000023904819
 84       0.000060126243
 85      -0.000018501503
 86       0.000131779501
 87      -0.000472705231
 88      -0.000220261000
 89      -0.000453691590
 90      -0.000078677191
 91       0.000009903128
 92      -0.000032330232
 93      -0.000060277803
 94      -0.000090606915
 95       0.000095184968
 96      -0.000005500794
 97       0.000167235141
 98       0.000182591209
 99       0.000182850360
100      -0.000591801640
101      -0.001819001176
102      -0.001277774078
103      -0.000122526901
104      -0.000358615315
105      -0.000011521026
106       0.000268150265
107       0.000754228709
108       0.000032666865
109       0.000215698087
110      -0.000728334042
111       0.000345303319
112       0.000025421879
113       0.000016195311
114      -0.000016942095
115       0.000035438072
116      -0.000040170274
117      -0.000067444855
118      -0.000016134421
119       0.000071921145
120      -0.000066047695
121       0.000136646651
122       0.000018001864
123       0.000039864675
124       0.000126027444
125      -0.000016428769
126      -0.000044406808
127      -0.000135600397
128      -0.000081511159
129       0.000051038032
130       0.000135464588
131       0.000050372769
132      -0.000009175940
133      -0.000030517581
134      -0.000021828126
135       0.000007326196
136      -0.000193108805
137      -0.000033775738
138       0.000008363949
139      -0.000068465758
140       0.000024184173
141       0.000049762421
142       0.000136839764
143       0.000048037205
144      -0.000031684595
145      -0.000024827359
146       0.000003779413
147       0.000114153845
148       0.000450673712
149      -0.000095448010
150       0.000048548798
151       0.000101359190
152       0.000014417439
 Sym=     1a
 Ene= -1.12504124843893E+01
 Spin= Alpha
 Occup= 2.000000
  1      -0.467485986171
  2      -0.403323420946
  3      -0.228085971232
  4      -0.020956208124
  5      -0.006610146479
  6      -0.012462816480
  7       0.000277963483
  8       0.000024320582
  9       0.000217221082
 10       0.000455534650
 11       0.000172157402
 12       0.000323608449
 13       0.000975714242
 14       0.000186150291
 15       0.000735430291
 16       0.000018121417
 17      -0.000012163489
 18       0.000019905050
 19       0.000031504355
 20       0.000001760018
 21      -0.000031163383
 22       0.000029606253
 23      -0.000190349948
 24      -0.000136845037
 25      -0.000160949074
 26       0.000040115598
 27      -0.000060468010
 28      -0.000131973035
 29       0.000539246950
 30       0.000798574198
 31      -0.000090072423
 32      -0.000044188566
 33       0.001178297468
 34       0.001129446324
 35       0.000419234354
 36      -0.000048461827
 37       0.000317194566
 38       0.004514623339
 39      -0.000254758525
 40      -0.000078916754
 41      -0.000183240013
 42       0.001357233174
 43       0.000448329359
 44       0.000970317998
 45       0.001386462318
 46       0.000277872052
 47       0.001036025825
 48      -0.000020600791
 49       0.000071620363
 50       0.000016257417
 51       0.000014360860
 52       0.000043143717
 53       0.000189099362
 54       0.000595890163
 55       0.000699094603
 56       0.000952837173
 57       0.000586573265
 58      -0.000186037081
 59       0.000082430529
 60      -0.000020417710
 61       0.000152516028
 62       0.000102694047
 63       0.000014401278
 64      -0.000109735857
 65      -0.000002531740
 66      -0.000013725875
 67       0.000021070863
 68      -0.000157983151
 69      -0.000742998353
 70       0.000355906792
 71      -0.000008357607
 72       0.000020589415
 73      -0.000011606457
 74       0.000278826596
 75      -0.000286571434
 76       0.000290197744
 77       0.000340548766
 78       0.000101048131
 79       0.000243011291
 80      -0.000006886283
 81       0.000014527806
 82       0.000000974141
 83      -0.000002529093
 84       0.000009134416
 85       0.000035548492
 86      -0.000000377107
 87      -0.000059534047
 88       0.000019650783
 89      -0.000096189451
 90       0.000007294807
 91      -0.000003200681
 92      -0.000001659795
 93       0.000000234627
 94       0.000002436519
 95      -0.000001101474
 96       0.000005599669
 97      -0.000000991358
 98      -0.000019992980
 99       0.000039539152
100      -0.000198637210
101      -0.000816525894
102      -0.000090168859
103      -0.000024764929
104      -0.000000016683
105      -0.000019763305
106       0.000315748593
107       0.000202661680
108       0.000202514076
109       0.000023750887
110       0.000122988965
111      -0.000013331208
112      -0.000002171424
113       0.000002629326
114      -0.000014209704
115      -0.000009788337
116      -0.000012291135
117      -0.000004464557
118       0.000016756832
119       0.000078456382
120       0.000045612002
121       0.000086651513
122       0.000011323591
123       0.000000042762
124       0.000009825866
125       0.000003494605
126       0.000005268175
127      -0.000016790142
128      -0.000002064180
129       0.000059058943
130       0.000553445516
131       0.001971326910
132      -0.000395569698
133      -0.000267734900
134       0.000353708867
135       0.000036841358
136       0.000215125919
137       0.001710270536
138      -0.000210179666
139       0.000395127929
140      -0.000265654409
141       0.000058613142
142       0.000549044769
143       0.001969167144
144       0.000169242984
145      -0.000445169630
146      -0.000354074537
147       0.000008260604
148       0.000151858818
149       0.000160113725
150       0.000006617414
151       0.000039152988
152      -0.000003847834
 Sym=     1a
 Ene= -1.46622505103248E+00
 Spin= Alpha
 Occup= 2.000000
  1       0.007686380468
  2       0.010530712049
  3       0.006718046741
  4      -0.023723624106
  5       0.030015420921
  6       0.022477922719
  7       0.012225642663
  8       0.004059139566
  9       0.008724138795
 10       0.010682470281
 11       0.003852854493
 12       0.007584925204
 13      -0.004064217708
 14       0.001679727596
 15      -0.003678619908
 16       0.000008513429
 17      -0.001433907173
 18      -0.000172023486
 19      -0.000790322322
 20      -0.000311425355
 21       0.000309771145
 22      -0.001318531883
 23      -0.001623959132
 24      -0.001129861211
 25      -0.002094466783
 26      -0.000186126317
 27       0.000264358936
 28      -0.000422552818
 29       0.000770066429
 30       0.000071362282
 31       0.000000537166
 32       0.000445392181
 33       0.053983841075
 34       0.073705460874
 35       0.049879765460
 36      -0.195290807021
 37       0.115379077071
 38      -0.017916251247
 39       0.051522656831
 40       0.016754029133
 41       0.036914897067
 42       0.025101921199
 43       0.003984167735
 44       0.018995984282
 45      -0.003438436770
 46      -0.002466277633
 47      -0.002132099386
 48       0.007508110162
 49      -0.006868971610
 50       0.006410077798
 51       0.010962504607
 52      -0.001255929588
 53       0.004771017881
 54      -0.002489623593
 55       0.004904352958
 56       0.008330668635
 57       0.000225850818
 58      -0.001515073750
 59      -0.000903638253
 60      -0.004314489433
 61      -0.002807296953
 62      -0.004275019771
 63       0.006360285631
 64       0.003680506697
 65       0.073004557286
 66       0.110093244068
 67       0.072313535955
 68      -0.248269066421
 69       0.350348999463
 70      -0.103400717389
 71       0.000207084279
 72       0.057263357171
 73      -0.013519330004
 74       0.000889923641
 75       0.059797861463
 76      -0.013582937000
 77      -0.001216068608
 78       0.003928634234
 79      -0.001899139860
 80       0.000921029307
 81      -0.002758772478
 82       0.001419831023
 83       0.000751446397
 84       0.000319638511
 85       0.003378523416
 86      -0.007461303653
 87       0.005402875240
 88       0.004167669586
 89       0.001615818572
 90       0.000084635435
 91      -0.000126624218
 92       0.000214681013
 93       0.001794103462
 94       0.003233219595
 95      -0.000926510036
 96      -0.000993483859
 97       0.048433972245
 98       0.072985090486
 99       0.047864221787
100      -0.166607490256
101       0.211138539288
102      -0.064614950051
103      -0.014754615338
104      -0.061751524783
105       0.003060668322
106      -0.010399812315
107      -0.049243636413
108       0.003526441427
109      -0.000306474411
110      -0.005482174117
111       0.001069436473
112       0.002261227374
113      -0.000040471986
114       0.000181988542
115       0.003344177595
116      -0.001981438834
117       0.004670540848
118      -0.000124576362
119       0.001346758578
120       0.007419533513
121      -0.003104728337
122      -0.000238671194
123       0.000216464209
124       0.001142419272
125      -0.000331944262
126       0.000072414265
127      -0.000824169019
128      -0.001285004612
129      -0.003368635331
130      -0.003819427404
131      -0.004376427300
132       0.000801623839
133       0.000118104571
134       0.000007884966
135      -0.003161056258
136      -0.003982116564
137      -0.000102119082
138       0.000027944348
139      -0.000702200371
140       0.000202417587
141      -0.003383371408
142      -0.003869756377
143      -0.004334345983
144       0.000226766205
145       0.000300009165
146       0.000723543217
147      -0.058998481855
148      -0.043270185874
149      -0.000323281916
150      -0.009364750288
151      -0.004330742968
152      -0.006406695029
 Sym=     1a
 Ene= -1.36252822096651E+00
 Spin= Alpha
 Occup= 2.000000
  1       0.002154167808
  2       0.003072143839
  3       0.001670216440
  4      -0.008125022284
  5      -0.005790460385
  6      -0.004338958847
  7       0.002005813689
  8       0.008429686367
  9      -0.000423197861
 10      -0.005028707199
 11       0.003324169730
 12      -0.004814774600
 13       0.000192038880
 14      -0.000765569514
 15       0.000342923930
 16       0.000513458385
 17       0.000422400897
 18      -0.000485994260
 19       0.000685688812
 20      -0.000960492009
 21       0.000457574850
 22       0.001724805874
 23       0.000697421909
 24       0.001899060302
 25       0.000443497206
 26      -0.000011580729
 27      -0.000351774697
 28      -0.000286595374
 29      -0.000459698930
 30       0.000122976544
 31       0.000665150593
 32       0.000041386050
 33       0.023416513051
 34       0.032814168754
 35       0.020237331241
 36      -0.078800905895
 37       0.060895777875
 38      -0.001685313373
 39       0.010828282054
 40       0.158126672660
 41      -0.029235673788
 42      -0.002111711398
 43       0.062986501239
 44      -0.016736201297
 45      -0.001910467137
 46      -0.002250641484
 47      -0.000974831286
 48       0.008455219485
 49       0.003466622804
 50      -0.006874992131
 51       0.010151299051
 52      -0.014801782430
 53       0.004192231439
 54      -0.002323066886
 55      -0.006030655903
 56       0.001593891529
 57      -0.010387139043
 58       0.000382301173
 59      -0.001482500615
 60      -0.003041144833
 61      -0.000756372842
 62       0.000302561106
 63       0.003584204096
 64       0.002515378219
 65      -0.059773104118
 66      -0.090266168970
 67      -0.059562759579
 68       0.205993622573
 69      -0.293934630808
 70       0.105282104811
 71      -0.007548008493
 72      -0.022984788486
 73      -0.000509982389
 74      -0.004382182423
 75      -0.031278399330
 76       0.003987752888
 77       0.001385192551
 78      -0.000696255129
 79       0.001261708988
 80      -0.000393591864
 81       0.002347037709
 82      -0.000280838796
 83       0.000430710376
 84       0.000302849987
 85      -0.001162488333
 86       0.006700833279
 87      -0.003524302254
 88      -0.000312272272
 89      -0.001883449366
 90       0.000254983573
 91      -0.000030793808
 92      -0.000627171289
 93      -0.001287911767
 94      -0.002627418254
 95       0.000953014517
 96       0.001475343506
 97       0.075889712900
 98       0.114506686078
 99       0.075465990438
100      -0.264769364608
101       0.343679938905
102      -0.127038159945
103      -0.029766879239
104      -0.071960891129
105      -0.006420426514
106      -0.026785789187
107      -0.063233878829
108      -0.006138403057
109      -0.002906077033
110      -0.008413055308
111      -0.000294779054
112       0.002946419538
113      -0.000299784443
114      -0.000509552961
115       0.003827337381
116      -0.003367333151
117       0.007068811292
118      -0.000519459567
119      -0.001820883267
120       0.008953176968
121      -0.008674066756
122       0.000326842996
123       0.000714205630
124       0.001571447974
125       0.000683762121
126       0.000046107456
127      -0.002261099542
128      -0.000933809181
129       0.000100100316
130       0.000465319932
131       0.001923160620
132      -0.000143135416
133       0.000249119212
134       0.000004573199
135      -0.003294898425
136      -0.002222925965
137      -0.000871847033
138       0.000507727640
139      -0.000254246204
140       0.000468747355
141       0.000136319645
142       0.000546126836
143       0.001919541294
144       0.000018606147
145       0.000183560794
146      -0.000223123867
147       0.050392200745
148       0.039801193691
149      -0.000124601231
150       0.008042221349
151       0.005013447491
152       0.005192559907
 Sym=     1a
 Ene= -1.03006372146845E+00
 Spin= Alpha
 Occup= 2.000000
  1       0.082578306492
  2       0.113886563945
  3       0.077326108394
  4      -0.279821991965
  5       0.303429957548
  6      -0.047153019489
  7       0.029026067915
  8       0.007937744690
  9       0.021195698964
 10       0.021764189007
 11       0.006158314640
 12       0.015841117628
 13       0.000838089566
 14       0.003348342615
 15      -0.000244950448
 16       0.000248544704
 17      -0.003054003569
 18      -0.001163400289
 19      -0.001786747379
 20      -0.001701062346
 21       0.000231629052
 22      -0.004634487527
 23      -0.001767559839
 24      -0.002921199809
 25      -0.002454074509
 26      -0.000495227161
 27       0.000182965455
 28      -0.000875364135
 29       0.005946440748
 30       0.007587512855
 31      -0.001468955419
 32      -0.001094128418
 33       0.035610806356